 Gaussian 09, Revision B.01,
 Gaussian 09:  EM64L-G09RevB.01 12-Aug-2010

 ------------------------------------------------
 # freq=raman b3lyp/6-31+g(d,p) geom=connectivity
 ------------------------------------------------

 ------------
 400 5000.com
 ------------
 Symbolic Z-matrix:
 Charge =  0 Multiplicity = 1

                         Standard orientation:
 ---------------------------------------------------------------------
 Center     Atomic      Atomic             Coordinates (Angstroms)
 Number     Number       Type             X           Y           Z
 ---------------------------------------------------------------------
      1          8           0        5.066997   -0.422763   -0.288019
      2          6           0        3.805325   -0.176299    0.350485
      3          6           0        3.265959    1.136555   -0.192838
      4          8           0        4.248387    2.180807   -0.139681
      5          1           0        5.176184    1.809687   -0.106090
      6          6           0        1.862664    1.509371    0.257190
      7          8           0        1.463228    2.656221   -0.505773
      8          1           0        0.493385    2.821912   -0.329182
      9          6           0        2.917177   -2.601403    0.004914
     10          8           0        3.945233   -3.308698   -0.704677
     11          1           0        3.711873   -4.280919   -0.712728
     12          6           0        2.668376   -1.102575   -0.047802
     13          8           0        1.412863   -0.807600    0.579444
     14          6           0        0.923189    0.364777   -0.088271
     15          8           0       -0.292489    0.705957    0.593759
     16          6           0       -1.513473    0.278076   -0.027652
     17          6           0       -2.049929   -1.010033    0.576864
     18          8           0       -0.983752   -1.970137    0.629594
     19          1           0       -0.174415   -1.393543    0.740505
     20          6           0       -3.326342   -1.501489   -0.085189
     21          8           0       -3.882116   -2.789890    0.213511
     22          1           0       -4.801436   -3.040021   -0.092764
     23          6           0       -2.229164    2.610998   -0.198647
     24          8           0       -1.114883    3.317649    0.366453
     25          1           0       -1.132063    4.313228    0.277047
     26          6           0       -2.655264    1.232825    0.280969
     27          8           0       -3.860473    0.861771   -0.403782
     28          6           0       -4.396818   -0.422865   -0.055138
     29          8           0       -5.518734   -0.600314   -0.932268
     30          1           0       -6.324191   -0.660537   -0.413410
     31          1           0       -4.770226   -0.363204    0.945815
     32          1           0       -3.058942   -1.578113   -1.118400
     33          1           0       -2.305693   -0.785905    1.591384
     34          1           0       -1.385081    0.173594   -1.084771
     35          1           0       -2.831600    1.256166    1.336081
     36          1           0       -3.081476    3.248675   -0.089873
     37          1           0       -2.033931    2.522134   -1.246925
     38          1           0        5.751302   -0.512186    0.379312
     39          1           0        1.995074   -3.059639   -0.286024
     40          1           0        3.063468   -2.835698    1.038648
     41          1           0        2.509699   -0.893550   -1.085120
     42          1           0        3.911869   -0.133445    1.414305
     43          1           0        3.150560    0.950057   -1.240121
     44          1           0        1.840168    1.720482    1.305916
     45          1           0        0.791158    0.229171   -1.141399
 ---------------------------------------------------------------------

 SCF Done:  E(RB3LYP) =  -1297.88794424     A.U. after   14 cycles

 The electronic state is 1-A.
 Alpha  occ. eigenvalues --  -19.20775 -19.20379 -19.19496 -19.19360 -19.19351
 Alpha  occ. eigenvalues --  -19.18668 -19.16937 -19.16707 -19.15041 -19.14543
 Alpha  occ. eigenvalues --  -19.14310 -10.32002 -10.31764 -10.27000 -10.26561
 Alpha  occ. eigenvalues --  -10.26470 -10.26103 -10.26027 -10.25683 -10.25045
 Alpha  occ. eigenvalues --  -10.24896 -10.24128 -10.24049  -1.11742  -1.09550
 Alpha  occ. eigenvalues --   -1.06325  -1.05531  -1.04702  -1.03763  -1.02616
 Alpha  occ. eigenvalues --   -1.02311  -1.01777  -1.00734  -0.99913  -0.83336
 Alpha  occ. eigenvalues --   -0.81562  -0.80089  -0.78489  -0.72379  -0.70670
 Alpha  occ. eigenvalues --   -0.67883  -0.65425  -0.63580  -0.62650  -0.62460
 Alpha  occ. eigenvalues --   -0.61242  -0.56977  -0.56305  -0.55877  -0.55355
 Alpha  occ. eigenvalues --   -0.54452  -0.54235  -0.52956  -0.51772  -0.51474
 Alpha  occ. eigenvalues --   -0.50881  -0.50749  -0.49561  -0.49007  -0.47215
 Alpha  occ. eigenvalues --   -0.46593  -0.45639  -0.44375  -0.44258  -0.43935
 Alpha  occ. eigenvalues --   -0.42485  -0.42377  -0.41237  -0.41135  -0.39252
 Alpha  occ. eigenvalues --   -0.38828  -0.38019  -0.37500  -0.36542  -0.36177
 Alpha  occ. eigenvalues --   -0.35279  -0.34548  -0.34453  -0.34195  -0.33559
 Alpha  occ. eigenvalues --   -0.33236  -0.31839  -0.31084  -0.30486  -0.30196
 Alpha  occ. eigenvalues --   -0.29516  -0.28104  -0.27852  -0.27435  -0.26601
 Alpha  occ. eigenvalues --   -0.26410
 Alpha virt. eigenvalues --   -0.02379  -0.02185  -0.02042  -0.00614  -0.00156
 Alpha virt. eigenvalues --    0.00571   0.01876   0.02055   0.02968   0.03370
 Alpha virt. eigenvalues --    0.03916   0.04167   0.04717   0.05061   0.05563

 Mulliken atomic charges:
              1
     1  O   -0.532061
     2  C   -0.215615
     3  C   -0.069645
     4  O   -0.525223
     5  H    0.356066
     6  C    0.221693
     7  O   -0.526966
     8  H    0.426050
     9  C   -0.051662
    10  O   -0.521721
    11  H    0.357595
    12  C    0.498508
    13  O   -0.367766
    14  C   -0.191115
    15  O   -0.346990
    16  C   -0.364774
    17  C    0.238534
    18  O   -0.535177
    19  H    0.424507
    20  C    0.082844
    21  O   -0.529109
    22  H    0.364397
    23  C   -0.081943
    24  O   -0.648908
    25  H    0.405177
    26  C    0.199428
    27  O   -0.301229
    28  C    0.150745
    29  O   -0.531634
    30  H    0.361765
    31  H    0.118441
    32  H    0.135188
    33  H    0.122755
    34  H    0.137785
    35  H    0.144251
    36  H    0.135602
    37  H    0.143694
    38  H    0.364490
    39  H    0.144976
    40  H    0.128795
    41  H    0.116609
    42  H    0.138110
    43  H    0.122499
    44  H    0.148812
    45  H    0.152223
 Sum of Mulliken atomic charges =   0.00000

 Dipole moment (field-independent basis, Debye):
    X=             -3.0828    Y=              0.1330    Z=              2.1789  Tot=              3.7775
 Quadrupole moment (field-independent basis, Debye-Ang):
   XX=           -113.7023   YY=           -138.0178   ZZ=           -142.5530
   XY=            -13.6819   XZ=              5.3928   YZ=              3.9752

  Exact polarizability: 231.802   3.228 191.716   1.459  -0.078 141.272
 Approx polarizability: 270.388   3.444 246.962   0.883   0.205 230.425

 ******    7 imaginary frequencies (negative Signs) ******

                     1                      2                      3
                     A                      A                      A
 Frequencies --  -347.7992              -286.8262              -274.3702
 Red. masses --     1.6464                 1.7651                 1.2001
 Frc consts  --     0.1173                 0.0856                 0.0532
 IR Inten    --     4.0455                 5.9747               102.5350
 Raman Activ --     0.1471                 0.0405                 0.8944

                     4                      5                      6
                     A                      A                      A
 Frequencies --  -266.3747               -93.4506               -59.5695
 Red. masses --     1.1906                 7.6290                 7.7358
 Frc consts  --     0.0498                 0.0393                 0.0162
 IR Inten    --   122.1877                 3.6982                 2.5860
 Raman Activ --     0.8330                 0.0563                 0.0155

                     7                      8                      9
                     A                      A                      A
 Frequencies --   -33.3865                36.2316                67.9185
 Red. masses --     6.4462                 6.4226                 6.5246
 Frc consts  --     0.0042                 0.0050                 0.0177
 IR Inten    --     0.1683                 0.7285                 0.9927
 Raman Activ --     0.0357                 0.0567                 0.1554

                    10                     11                     12
                     A                      A                      A
 Frequencies --    89.4245                95.0729               108.3043
 Red. masses --     6.5148                 6.9424                 6.1737
 Frc consts  --     0.0307                 0.0370                 0.0427
 IR Inten    --     1.3996                 1.7330                 4.0146
 Raman Activ --     0.0399                 0.2549                 0.1420

                    13                     14                     15
                     A                      A                      A
 Frequencies --   154.1648               176.0746               183.1893
 Red. masses --     6.8788                 5.5230                 7.1486
 Frc consts  --     0.0963                 0.1009                 0.1413
 IR Inten    --     6.2254                 2.7704                 1.9446
 Raman Activ --     0.2300                 0.3846                 0.5953

                    16                     17                     18
                     A                      A                      A
 Frequencies --   206.0096               234.9604               255.9517
 Red. masses --     6.7891                 5.6040                 3.8438
 Frc consts  --     0.1698                 0.1823                 0.1484
 IR Inten    --     0.7512                 7.6532                12.5714
 Raman Activ --     2.6360                 0.9725                 0.2510

                    19                     20                     21
                     A                      A                      A
 Frequencies --   287.1801               289.1107               299.3300
 Red. masses --     4.9623                 4.8138                 4.9058
 Frc consts  --     0.2411                 0.2371                 0.2590
 IR Inten    --     6.8993                 6.6594                 2.1349
 Raman Activ --     0.5796                 1.0863                 0.2350

                    22                     23                     24
                     A                      A                      A
 Frequencies --   312.5933               318.2075               326.3935
 Red. masses --     5.1036                 5.4659                 6.2155
 Frc consts  --     0.2938                 0.3261                 0.3901
 IR Inten    --     7.8318                 5.7551                10.8201
 Raman Activ --     0.2046                 2.8590                 6.2697

                    25                     26                     27
                     A                      A                      A
 Frequencies --   337.7948               352.9143               383.5700
 Red. masses --     5.5741                 5.5176                 6.6061
 Frc consts  --     0.3747                 0.4049                 0.5726
 IR Inten    --     8.2898                 4.6182                 4.5669
 Raman Activ --     1.1866                 0.7717                 3.0346

                    28                     29                     30
                     A                      A                      A
 Frequencies --   397.3154               421.4784               436.6776
 Red. masses --     6.2029                 5.0246                 6.1716
 Frc consts  --     0.5769                 0.5259                 0.6934
 IR Inten    --    15.3518                16.8716                 7.2423
 Raman Activ --     1.4625                 3.5269                 1.2566

                    31                     32                     33
                     A                      A                      A
 Frequencies --   444.2786               478.9780               495.6104
 Red. masses --     3.8077                 4.3577                 4.6046
 Frc consts  --     0.4428                 0.5890                 0.6664
 IR Inten    --    11.4314                13.5584                 5.1314
 Raman Activ --     4.0276                 1.2324                 2.3993

                    34                     35                     36
                     A                      A                      A
 Frequencies --   517.0178               525.7230               537.2108
 Red. masses --     3.8567                 2.9132                 1.3662
 Frc consts  --     0.6074                 0.4744                 0.2323
 IR Inten    --     5.3185                13.2668                58.4658
 Raman Activ --     3.6103                 4.5252                 2.3009

                    37                     38                     39
                     A                      A                      A
 Frequencies --   566.7229               592.9709               598.5502
 Red. masses --     3.5830                 3.6656                 3.1296
 Frc consts  --     0.6780                 0.7594                 0.6606
 IR Inten    --    16.0092                14.1505                22.2593
 Raman Activ --     1.2110                 0.8548                 2.0768

                    40                     41                     42
                     A                      A                      A
 Frequencies --   609.9834               630.7855               657.9336
 Red. masses --     5.0092                 2.9139                 1.1666
 Frc consts  --     1.0981                 0.6831                 0.2975
 IR Inten    --    36.9851                14.6936                18.4044
 Raman Activ --     0.4702                 1.5799                 1.3769

                    43                     44                     45
                     A                      A                      A
 Frequencies --   659.8912               662.4983               682.5311
 Red. masses --     1.1140                 1.0815                 4.8293
 Frc consts  --     0.2858                 0.2797                 1.3255
 IR Inten    --    84.9843               242.1121                 4.6162
 Raman Activ --     3.0311                 1.1066                 1.9868

                    46                     47                     48
                     A                      A                      A
 Frequencies --   791.9557               844.1789               852.4233
 Red. masses --     1.1139                 1.7613                 1.3366
 Frc consts  --     0.4116                 0.7395                 0.5722
 IR Inten    --    76.7727                14.0263                38.9984
 Raman Activ --     2.3659                 1.1878                 0.3626

                    49                     50                     51
                     A                      A                      A
 Frequencies --   887.7394               932.8646               962.9950
 Red. masses --     1.3334                 4.9160                 5.7230
 Frc consts  --     0.6191                 2.5206                 3.1269
 IR Inten    --    40.1922                65.9705               112.5034
 Raman Activ --     0.5424                 3.0600                 0.7447

                    52                     53                     54
                     A                      A                      A
 Frequencies --   971.8790               983.9275              1001.9683
 Red. masses --     3.9658                 4.6018                 4.8184
 Frc consts  --     2.2070                 2.6249                 2.8501
 IR Inten    --    20.8394                69.9113               191.6249
 Raman Activ --     1.8764                 1.9244                 1.3018

                    55                     56                     57
                     A                      A                      A
 Frequencies --  1012.4487              1020.2088              1032.9818
 Red. masses --     6.0272                 6.5585                 4.7346
 Frc consts  --     3.6401                 4.0219                 2.9766
 IR Inten    --    34.1542               110.8239               456.3530
 Raman Activ --     2.5735                 0.2685                 3.3987

                    58                     59                     60
                     A                      A                      A
 Frequencies --  1034.4249              1054.1769              1065.6388
 Red. masses --     5.2496                 3.3330                 4.1820
 Frc consts  --     3.3096                 2.1823                 2.7980
 IR Inten    --   161.6011               197.6307                18.7361
 Raman Activ --     1.4448                 7.5887                 1.4909

                    61                     62                     63
                     A                      A                      A
 Frequencies --  1073.6246              1075.0442              1083.1377
 Red. masses --     3.7507                 4.1326                 3.7080
 Frc consts  --     2.5472                 2.8140                 2.5630
 IR Inten    --    46.5025                 3.6297               121.0918
 Raman Activ --     3.0317                 1.8010                 7.8604

                    64                     65                     66
                     A                      A                      A
 Frequencies --  1096.5098              1099.9500              1111.3088
 Red. masses --     2.4339                 1.7114                 2.7489
 Frc consts  --     1.7241                 1.2199                 2.0002
 IR Inten    --    55.2656                 5.5161                24.4458
 Raman Activ --     1.1849                 6.4858                 6.3215

                    67                     68                     69
                     A                      A                      A
 Frequencies --  1121.2661              1129.1224              1134.1896
 Red. masses --     2.0087                 2.6746                 3.3753
 Frc consts  --     1.4879                 2.0091                 2.5582
 IR Inten    --   173.0396                44.4921                13.2961
 Raman Activ --     9.9522                 5.3593                17.1921

                    70                     71                     72
                     A                      A                      A
 Frequencies --  1151.3196              1157.3230              1164.7627
 Red. masses --     2.4132                 2.5994                 2.5749
 Frc consts  --     1.8847                 2.0513                 2.0582
 IR Inten    --    48.9457                15.0682                 3.1825
 Raman Activ --     7.7457                 3.0087                 9.0476

                    73                     74                     75
                     A                      A                      A
 Frequencies --  1169.5513              1173.2714              1203.1112
 Red. masses --     2.0511                 2.0848                 1.5368
 Frc consts  --     1.6530                 1.6909                 1.3107
 IR Inten    --    14.6879                12.1478                 1.2130
 Raman Activ --     1.0433                 2.0970                 1.6537

                    76                     77                     78
                     A                      A                      A
 Frequencies --  1210.3666              1218.7990              1221.1497
 Red. masses --     1.5579                 1.9109                 1.4867
 Frc consts  --     1.3447                 1.6725                 1.3062
 IR Inten    --     7.2663                25.6218                 6.7658
 Raman Activ --     1.8874                 1.8906                 1.3120

                    79                     80                     81
                     A                      A                      A
 Frequencies --  1257.4243              1258.6682              1259.0727
 Red. masses --     1.2767                 1.3193                 1.2804
 Frc consts  --     1.1893                 1.2314                 1.1959
 IR Inten    --    38.3392                 9.2259                17.8201
 Raman Activ --     5.6308                 3.0641                 2.3932

                    82                     83                     84
                     A                      A                      A
 Frequencies --  1267.3328              1272.2753              1288.9749
 Red. masses --     1.2424                 1.3009                 1.3226
 Frc consts  --     1.1757                 1.2406                 1.2947
 IR Inten    --    11.5672                55.8921                 4.0232
 Raman Activ --     2.5273                 3.9820                 3.5059

                    85                     86                     87
                     A                      A                      A
 Frequencies --  1300.8184              1304.5870              1311.5900
 Red. masses --     1.1698                 1.3681                 1.4187
 Frc consts  --     1.1663                 1.3719                 1.4379
 IR Inten    --    61.3234                 7.7678                 9.3407
 Raman Activ --     8.8406                 1.8426                 3.5416

                    88                     89                     90
                     A                      A                      A
 Frequencies --  1320.1163              1325.9868              1336.3905
 Red. masses --     1.1931                 1.4216                 1.2496
 Frc consts  --     1.2250                 1.4727                 1.3149
 IR Inten    --     7.5607                17.8678                48.9386
 Raman Activ --     5.3431                 1.4551                 3.5355

                    91                     92                     93
                     A                      A                      A
 Frequencies --  1345.3524              1358.7876              1364.4293
 Red. masses --     1.1396                 1.4234                 1.2585
 Frc consts  --     1.2153                 1.5484                 1.3804
 IR Inten    --    26.2694                 3.6938                12.6120
 Raman Activ --     7.2858                14.0664                 3.3729

                    94                     95                     96
                     A                      A                      A
 Frequencies --  1375.1150              1392.9967              1396.5833
 Red. masses --     1.3684                 1.5475                 1.1689
 Frc consts  --     1.5246                 1.7692                 1.3432
 IR Inten    --     5.2334                 5.6753                 2.0306
 Raman Activ --     3.4573                 2.7715                 2.6720

                    97                     98                     99
                     A                      A                      A
 Frequencies --  1400.7608              1403.4611              1405.6905
 Red. masses --     1.4980                 1.2984                 1.3397
 Frc consts  --     1.7318                 1.5068                 1.5597
 IR Inten    --    46.9100                11.3867                34.3059
 Raman Activ --     3.5122                 7.5132                 3.4057

                   100                    101                    102
                     A                      A                      A
 Frequencies --  1423.6909              1431.3696              1438.5003
 Red. masses --     1.5233                 1.4033                 1.1280
 Frc consts  --     1.8191                 1.6939                 1.3753
 IR Inten    --     5.6247                 7.9902                 2.5659
 Raman Activ --     4.0686                 0.6171                 2.0124

                   103                    104                    105
                     A                      A                      A
 Frequencies --  1465.6922              1479.8117              1484.5913
 Red. masses --     1.3027                 1.1359                 1.0858
 Frc consts  --     1.6489                 1.4656                 1.4100
 IR Inten    --    15.0720                 1.5519                 2.1163
 Raman Activ --     3.3827                 2.7253                 4.9655

                   106                    107                    108
                     A                      A                      A
 Frequencies --  1490.0502              1495.8921              3254.4107
 Red. masses --     1.2825                 1.2897                 1.0780
 Frc consts  --     1.6777                 1.7003                 6.7269
 IR Inten    --    38.0532                90.2865                 5.8056
 Raman Activ --     0.7389                 3.7151                21.9618

                   109                    110                    111
                     A                      A                      A
 Frequencies --  3261.9846              3262.8113              3268.4031
 Red. masses --     1.0784                 1.0662                 1.0601
 Frc consts  --     6.7605                 6.6874                 6.6722
 IR Inten    --    18.3311                32.7601                86.8485
 Raman Activ --   133.6701                59.8723               104.6722

                   112                    113                    114
                     A                      A                      A
 Frequencies --  3271.7397              3276.0810              3288.7266
 Red. masses --     1.0820                 1.0802                 1.0866
 Frc consts  --     6.8239                 6.8306                 6.9244
 IR Inten    --     5.4225                20.4656                79.3846
 Raman Activ --    37.6976               102.3808                13.0761

                   115                    116                    117
                     A                      A                      A
 Frequencies --  3296.7264              3303.9445              3307.9147
 Red. masses --     1.0842                 1.0757                 1.0868
 Frc consts  --     6.9427                 6.9184                 7.0067
 IR Inten    --    19.2938               285.9219                71.9685
 Raman Activ --   119.9913               173.7127                93.0085

                   118                    119                    120
                     A                      A                      A
 Frequencies --  3309.7087              3312.8750              3314.7677
 Red. masses --     1.0878                 1.0995                 1.0849
 Frc consts  --     7.0207                 7.1099                 7.0232
 IR Inten    --    45.1741                72.8321                44.3506
 Raman Activ --    34.3096                28.0706                82.0078

                   121                    122                    123
                     A                      A                      A
 Frequencies --  3323.7185              3325.0261              3347.3015
 Red. masses --     1.0902                 1.0981                 1.0661
 Frc consts  --     7.0959                 7.1531                 7.0380
 IR Inten    --    45.2517               147.5598               785.8412
 Raman Activ --    45.3792                19.5178               128.6488

                   124                    125                    126
                     A                      A                      A
 Frequencies --  3383.3104              3388.1732              3390.8456
 Red. masses --     1.0685                 1.0659                 1.0678
 Frc consts  --     7.2059                 7.2092                 7.2336
 IR Inten    --    67.9583                37.5689                54.4906
 Raman Activ --   174.1630               105.0354               157.5974

                   127                    128                    129
                     A                      A                      A
 Frequencies --  3397.7877              3918.6733              3920.2385
 Red. masses --     1.0685                 1.0679                 1.0678
 Frc consts  --     7.2678                 9.6614                 9.6686
 IR Inten    --    83.2013                84.2145                78.8488
 Raman Activ --   159.3309                99.3805               122.6957

 - Thermochemistry -
 -------------------
 Temperature   298.150 Kelvin.  Pressure   1.00000 Atm.
 Atom     1 has atomic number  8 and mass  15.99491

 Molecular mass:   342.11621 amu.
 Principal axes and moments of inertia in atomic units:
                           1         2         3
     Eigenvalues --  4398.99941********************
           X            0.99998  -0.00694   0.00007
           Y            0.00694   0.99998   0.00018
           Z           -0.00007  -0.00018   1.00000
 This molecule is an asymmetric top.
 Rotational symmetry number  1.
 Warning -- assumption of classical behavior for rotation
           may cause significant error
 Rotational temperatures (Kelvin)      0.01969     0.00698     0.00533
 Rotational constants (GHZ):           0.41026     0.14545     0.11109
    7 imaginary frequencies ignored.
 Zero-point vibrational energy     976483.9 (Joules/Mol)
                                  233.38524 (Kcal/Mol)
 Warning -- explicit consideration of  33 degrees of freedom as
           vibrations may cause significant error
 Vibrational temperatures:     52.13    97.72   128.66   136.79   155.83
          (Kelvin)            221.81   253.33   263.57   296.40   338.06
                              368.26   413.19   415.97   430.67   449.75
                              457.83   469.61   486.01   507.76   551.87
                              571.65   606.41   628.28   639.22   689.14
                              713.07   743.87   756.40   772.93   815.39
                              853.15   861.18   877.63   907.56   946.62
                              949.44   953.19   982.01  1139.45  1214.58
                             1226.45  1277.26  1342.18  1385.53  1398.32
                             1415.65  1441.61  1456.69  1467.85  1486.23
                             1488.30  1516.72  1533.21  1544.70  1546.75
                             1558.39  1577.63  1582.58  1598.92  1613.25
                             1624.55  1631.84  1656.49  1665.13  1675.83
                             1682.72  1688.07  1731.01  1741.45  1753.58
                             1756.96  1809.15  1810.94  1811.52  1823.41
                             1830.52  1854.55  1871.59  1877.01  1887.08
                             1899.35  1907.80  1922.77  1935.66  1954.99
                             1963.11  1978.48  2004.21  2009.37  2015.38
                             2019.27  2022.47  2048.37  2059.42  2069.68
                             2108.80  2129.12  2135.99  2143.85  2152.25
                             4682.37  4693.26  4694.45  4702.50  4707.30
                             4713.54  4731.74  4743.25  4753.63  4759.35
                             4761.93  4766.48  4769.21  4782.08  4783.97
                             4816.01  4867.82  4874.82  4878.66  4888.65
                             5638.09  5640.34

 Zero-point correction=                           0.371923 (Hartree/Particle)
 Thermal correction to Energy=                    0.390385
 Thermal correction to Enthalpy=                  0.391329
 Thermal correction to Gibbs Free Energy=         0.326248
 Sum of electronic and zero-point Energies=          -1297.516021
 Sum of electronic and thermal Energies=             -1297.497559
 Sum of electronic and thermal Enthalpies=           -1297.496615
 Sum of electronic and thermal Free Energies=        -1297.561697

                     E (Thermal)             CV                S
                      KCal/Mol        Cal/Mol-Kelvin    Cal/Mol-Kelvin
 Total                  244.970             76.351            136.976
 Electronic               0.000              0.000              0.000
 Translational            0.889              2.981             43.384
 Rotational               0.889              2.981             35.138
 Vibrational            243.193             70.389             58.454
 Vibration     1          0.594              1.982              5.455
 Vibration     2          0.598              1.970              4.213
 Vibration     3          0.602              1.957              3.673
 Vibration     4          0.603              1.953              3.553
 Vibration     5          0.606              1.943              3.299
 Vibration     6          0.620              1.898              2.620
 Vibration     7          0.628              1.872              2.370
 Vibration     8          0.631              1.863              2.296
 Vibration     9          0.640              1.831              2.079
 Vibration    10          0.655              1.787              1.841
 Vibration    11          0.666              1.753              1.689
 Vibration    12          0.684              1.698              1.491
 Vibration    13          0.686              1.694              1.479
 Vibration    14          0.692              1.675              1.421
 Vibration    15          0.701              1.650              1.349
 Vibration    16          0.705              1.639              1.319
 Vibration    17          0.710              1.623              1.278
 Vibration    18          0.718              1.600              1.223
 Vibration    19          0.729              1.569              1.153
 Vibration    20          0.753              1.505              1.025
 Vibration    21          0.764              1.476              0.973
 Vibration    22          0.784              1.424              0.887
 Vibration    23          0.797              1.390              0.837
 Vibration    24          0.804              1.374              0.813
 Vibration    25          0.835              1.297              0.713
 Vibration    26          0.851              1.260              0.669
 Vibration    27          0.872              1.212              0.617
 Vibration    28          0.881              1.193              0.597
 Vibration    29          0.892              1.168              0.571
 Vibration    30          0.923              1.103              0.511
 Vibration    31          0.951              1.047              0.462
 Vibration    32          0.957              1.035              0.452
 Vibration    33          0.969              1.011              0.433

 Normal termination of Gaussian 09 at Thu Jan 21 18:00:31 2016.
