 Gaussian 09, Revision B.01,
 Gaussian 09:  EM64L-G09RevB.01 12-Aug-2010

 -------------------------------------------------
 # freq=raman b3lyp/6-31+g(2d,p) geom=connectivity
 -------------------------------------------------

 -----------------
 493 6000/6000.com
 -----------------
 Symbolic Z-matrix:
 Charge =  0 Multiplicity = 1

                         Standard orientation:
 ---------------------------------------------------------------------
 Center     Atomic      Atomic             Coordinates (Angstroms)
 Number     Number       Type             X           Y           Z
 ---------------------------------------------------------------------
      1          8           0        4.970308   -0.446334   -0.345619
      2          6           0        3.721185   -0.067329    0.251131
      3          6           0        3.236446    1.237481   -0.359356
      4          8           0        4.189013    2.272743   -0.078519
      5          1           0        5.122621    1.956759   -0.247041
      6          6           0        1.861766    1.642380    0.147639
      7          8           0        1.271940    2.834679   -0.391267
      8          1           0        0.493963    2.950282    0.226627
      9          6           0        3.030352   -2.587531    0.288432
     10          8           0        4.117858   -3.224754   -0.398825
     11          1           0        3.999885   -4.214460   -0.473522
     12          6           0        2.793920   -1.175210   -0.219024
     13          8           0        1.506307   -0.767401    0.265995
     14          6           0        0.961739    0.471439   -0.211757
     15          8           0       -0.212166    0.603835    0.602302
     16          6           0       -1.477264    0.195957    0.061566
     17          6           0       -2.076116   -1.113501    0.548541
     18          8           0       -1.034010   -2.100699    0.546629
     19          1           0       -0.143916   -1.693462    0.752707
     20          6           0       -3.331515   -1.546939   -0.190230
     21          8           0       -3.767893   -2.899691    0.007697
     22          1           0       -4.493997   -3.155017   -0.630312
     23          6           0       -2.409385    2.570655   -0.042571
     24          8           0       -1.243968    3.330599    0.307297
     25          1           0       -1.422138    4.289752    0.087709
     26          6           0       -2.611411    1.138814    0.428124
     27          8           0       -3.861312    0.858803   -0.217674
     28          6           0       -4.381905   -0.462237   -0.010190
     29          8           0       -5.496559   -0.575545   -0.906238
     30          1           0       -6.302708   -0.699943   -0.400029
     31          1           0       -4.751958   -0.521887    0.992009
     32          1           0       -3.067510   -1.502487   -1.226196
     33          1           0       -2.358510   -0.963423    1.569634
     34          1           0       -1.394237    0.157925   -1.004530
     35          1           0       -2.750496    1.130377    1.489013
     36          1           0       -3.255025    3.129236    0.300619
     37          1           0       -2.454794    2.552133   -1.111447
     38          1           0        5.592431   -0.692029    0.343001
     39          1           0        3.253625   -2.549257    1.334178
     40          1           0        2.140595   -3.163709    0.142654
     41          1           0        2.777872   -1.186795   -1.288841
     42          1           0        3.781896   -0.019399    1.318331
     43          1           0        3.179350    1.111304   -1.420355
     44          1           0        1.901994    1.731780    1.213138
     45          1           0        0.728033    0.438575   -1.255406
 ---------------------------------------------------------------------

 SCF Done:  E(RB3LYP) =  -1297.97644523     A.U. after   13 cycles

 The electronic state is 1-A.
 Alpha  occ. eigenvalues --  -19.18229 -19.18188 -19.18030 -19.17573 -19.17145
 Alpha  occ. eigenvalues --  -19.16604 -19.16462 -19.15971 -19.14765 -19.13756
 Alpha  occ. eigenvalues --  -19.13356 -10.30666 -10.30243 -10.25859 -10.25627
 Alpha  occ. eigenvalues --  -10.25351 -10.24878 -10.24778 -10.24529 -10.24282
 Alpha  occ. eigenvalues --  -10.24223 -10.24217 -10.24042  -1.09673  -1.08992
 Alpha  occ. eigenvalues --   -1.05198  -1.04442  -1.03439  -1.03334  -1.02771
 Alpha  occ. eigenvalues --   -1.02244  -1.01732  -1.00411  -0.99994  -0.82464
 Alpha  occ. eigenvalues --   -0.79877  -0.79818  -0.78512  -0.71744  -0.69915
 Alpha  occ. eigenvalues --   -0.67146  -0.64358  -0.62604  -0.62347  -0.61605
 Alpha  occ. eigenvalues --   -0.60424  -0.56396  -0.55639  -0.54972  -0.54591
 Alpha  occ. eigenvalues --   -0.53665  -0.53323  -0.52800  -0.51066  -0.50976
 Alpha  occ. eigenvalues --   -0.50740  -0.49739  -0.49212  -0.48377  -0.46506
 Alpha  occ. eigenvalues --   -0.45777  -0.44854  -0.44469  -0.43651  -0.43303
 Alpha  occ. eigenvalues --   -0.42732  -0.41878  -0.41108  -0.40485  -0.38661
 Alpha  occ. eigenvalues --   -0.37879  -0.37708  -0.36902  -0.36283  -0.35606
 Alpha  occ. eigenvalues --   -0.35097  -0.34817  -0.34305  -0.33380  -0.33231
 Alpha  occ. eigenvalues --   -0.32916  -0.31037  -0.30706  -0.30014  -0.29654
 Alpha  occ. eigenvalues --   -0.28907  -0.28875  -0.27956  -0.27464  -0.26242
 Alpha  occ. eigenvalues --   -0.25967
 Alpha virt. eigenvalues --   -0.01647  -0.01566  -0.01463  -0.00292   0.00166
 Alpha virt. eigenvalues --    0.00866   0.01807   0.01961   0.02868   0.03510
 Alpha virt. eigenvalues --    0.03948   0.04053   0.04746   0.05368   0.05639

 Mulliken atomic charges:
              1
     1  O   -0.547902
     2  C    0.043989
     3  C    0.202383
     4  O   -0.566869
     5  H    0.342906
     6  C   -0.237360
     7  O   -0.507069
     8  H    0.385160
     9  C   -0.265450
    10  O   -0.530471
    11  H    0.342643
    12  C    0.087789
    13  O   -0.258096
    14  C    0.535116
    15  O   -0.242768
    16  C    0.100397
    17  C    0.251138
    18  O   -0.582586
    19  H    0.380785
    20  C    0.027951
    21  O   -0.545117
    22  H    0.340987
    23  C   -0.282124
    24  O   -0.568266
    25  H    0.353253
    26  C   -0.136683
    27  O   -0.209170
    28  C    0.171500
    29  O   -0.526715
    30  H    0.333412
    31  H    0.113687
    32  H    0.114649
    33  H    0.099401
    34  H    0.106492
    35  H    0.123327
    36  H    0.141277
    37  H    0.154837
    38  H    0.336121
    39  H    0.138975
    40  H    0.153690
    41  H    0.119320
    42  H    0.124197
    43  H    0.118307
    44  H    0.133073
    45  H    0.129883
 Sum of Mulliken atomic charges =   0.00000

 Dipole moment (field-independent basis, Debye):
    X=             -2.2549    Y=             -0.7480    Z=              1.5017  Tot=              2.8106
 Quadrupole moment (field-independent basis, Debye-Ang):
   XX=           -116.1281   YY=           -137.3201   ZZ=           -138.1019
   XY=            -14.4755   XZ=              3.8223   YZ=              4.1319

  Exact polarizability: 233.463   1.436 198.857   1.297   0.477 144.650
 Approx polarizability: 274.298   0.572 258.449   0.979   1.462 239.945

 ******    7 imaginary frequencies (negative Signs) ******

                     1                      2                      3
                     A                      A                      A
 Frequencies --  -277.3986              -274.3334              -210.1742
 Red. masses --     1.7779                 1.2038                 1.1905
 Frc consts  --     0.0806                 0.0534                 0.0310
 IR Inten    --     3.0284                96.7646                96.6931
 Raman Activ --     0.0770                 0.9809                 0.6883

                     4                      5                      6
                     A                      A                      A
 Frequencies --  -207.0672               -78.1458               -63.2851
 Red. masses --     1.7603                 6.8387                 6.0580
 Frc consts  --     0.0445                 0.0246                 0.0143
 IR Inten    --    12.2402                 0.6170                 1.1604
 Raman Activ --     0.3004                 0.1085                 0.0345

                     7                      8                      9
                     A                      A                      A
 Frequencies --   -42.7095                46.2378                62.1167
 Red. masses --     6.5626                 6.4440                 6.2256
 Frc consts  --     0.0071                 0.0081                 0.0142
 IR Inten    --     0.8669                 0.9041                 0.9303
 Raman Activ --     0.0321                 0.1134                 0.0227

                    10                     11                     12
                     A                      A                      A
 Frequencies --    73.4701                92.1249               105.0195
 Red. masses --     6.4987                 6.7163                 6.1475
 Frc consts  --     0.0207                 0.0336                 0.0399
 IR Inten    --     1.3030                 1.4981                 1.9423
 Raman Activ --     0.2846                 0.0417                 0.0782

                    13                     14                     15
                     A                      A                      A
 Frequencies --   157.3442               168.2468               183.5434
 Red. masses --     6.3138                 6.0812                 7.1326
 Frc consts  --     0.0921                 0.1014                 0.1416
 IR Inten    --     2.6682                 4.0919                 0.2131
 Raman Activ --     0.5797                 0.4692                 0.3827

                    16                     17                     18
                     A                      A                      A
 Frequencies --   210.4568               233.3201               264.4905
 Red. masses --     6.7328                 5.9983                 4.1069
 Frc consts  --     0.1757                 0.1924                 0.1693
 IR Inten    --     0.2535                 1.5494                16.2512
 Raman Activ --     2.3044                 0.5441                 0.1824

                    19                     20                     21
                     A                      A                      A
 Frequencies --   272.3680               282.6668               291.2333
 Red. masses --     5.2473                 5.1272                 4.5020
 Frc consts  --     0.2293                 0.2414                 0.2250
 IR Inten    --     3.2389                 0.8385                 5.0382
 Raman Activ --     0.2150                 0.0252                 0.1732

                    22                     23                     24
                     A                      A                      A
 Frequencies --   295.9876               311.5232               328.2970
 Red. masses --     5.7080                 5.1187                 5.8327
 Frc consts  --     0.2946                 0.2927                 0.3704
 IR Inten    --     3.8024                 1.2772                 1.5373
 Raman Activ --     1.0013                 2.5774                 2.2469

                    25                     26                     27
                     A                      A                      A
 Frequencies --   349.5664               355.9338               382.8561
 Red. masses --     6.1246                 5.4079                 7.7741
 Frc consts  --     0.4409                 0.4037                 0.6714
 IR Inten    --    14.9369                 2.8448                 1.8504
 Raman Activ --     4.7228                 2.8178                 1.7060

                    28                     29                     30
                     A                      A                      A
 Frequencies --   396.3077               414.7354               420.0646
 Red. masses --     4.6586                 5.3633                 6.6661
 Frc consts  --     0.4311                 0.5435                 0.6930
 IR Inten    --     9.9833                 8.0167                 5.5130
 Raman Activ --     1.1704                 6.2004                 3.6608

                    31                     32                     33
                     A                      A                      A
 Frequencies --   441.6858               482.4811               483.6528
 Red. masses --     3.6988                 4.5892                 3.8962
 Frc consts  --     0.4251                 0.6294                 0.5370
 IR Inten    --     3.6765                11.6189                 6.6200
 Raman Activ --     0.4738                 1.1738                 2.6126

                    34                     35                     36
                     A                      A                      A
 Frequencies --   515.8797               531.4833               569.3984
 Red. masses --     4.9504                 3.2760                 4.3306
 Frc consts  --     0.7762                 0.5452                 0.8272
 IR Inten    --     3.9845                13.7425                15.9803
 Raman Activ --     3.6157                 1.9404                 1.4444

                    37                     38                     39
                     A                      A                      A
 Frequencies --   591.3409               596.1060               612.7179
 Red. masses --     4.7261                 3.1769                 4.9280
 Frc consts  --     0.9737                 0.6651                 1.0900
 IR Inten    --     9.3639                39.9857                11.5075
 Raman Activ --     0.8131                 0.6347                 0.4127

                    40                     41                     42
                     A                      A                      A
 Frequencies --   631.8889               668.5951               684.2404
 Red. masses --     3.9318                 1.2097                 1.0643
 Frc consts  --     0.9250                 0.3186                 0.2936
 IR Inten    --    30.1105               107.3003                78.6268
 Raman Activ --     0.7019                 1.3431                 1.6885

                    43                     44                     45
                     A                      A                      A
 Frequencies --   696.3625               697.7037               732.6289
 Red. masses --     2.4605                 1.2275                 1.0816
 Frc consts  --     0.7030                 0.3520                 0.3420
 IR Inten    --     2.5120               127.1980               130.9942
 Raman Activ --     2.3403                 1.0401                 2.7888

                    46                     47                     48
                     A                      A                      A
 Frequencies --   746.3192               790.3946               850.3519
 Red. masses --     1.0552                 1.1176                 1.7784
 Frc consts  --     0.3463                 0.4114                 0.7577
 IR Inten    --   101.8449               129.0052                 6.8681
 Raman Activ --     1.8971                 2.2614                 0.8998

                    49                     50                     51
                     A                      A                      A
 Frequencies --   863.5614               914.8848               946.7101
 Red. masses --     1.7478                 5.3668                 6.0656
 Frc consts  --     0.7679                 2.6467                 3.2030
 IR Inten    --     3.5915               118.0709                47.8386
 Raman Activ --     0.9213                 2.4027                 0.3339

                    52                     53                     54
                     A                      A                      A
 Frequencies --   965.6771               969.2888               973.3253
 Red. masses --     6.8794                 5.6976                 4.2631
 Frc consts  --     3.7798                 3.1539                 2.3796
 IR Inten    --    11.8758               261.9449                29.3285
 Raman Activ --     2.7935                 0.9890                 0.8127

                    55                     56                     57
                     A                      A                      A
 Frequencies --   996.9678              1008.5511              1022.8836
 Red. masses --     5.1896                 5.8665                 6.0867
 Frc consts  --     3.0391                 3.5158                 3.7522
 IR Inten    --   230.0866                44.0677               118.5940
 Raman Activ --     1.1726                 4.2179                 1.7089

                    58                     59                     60
                     A                      A                      A
 Frequencies --  1035.3703              1049.8481              1057.9350
 Red. masses --     5.8952                 4.4139                 4.1757
 Frc consts  --     3.7234                 2.8663                 2.7536
 IR Inten    --   420.2635                60.1833               148.7860
 Raman Activ --     2.2269                16.1996                12.4732

                    61                     62                     63
                     A                      A                      A
 Frequencies --  1069.2030              1071.9557              1081.9608
 Red. masses --     3.9637                 5.2387                 2.5943
 Frc consts  --     2.6698                 3.5467                 1.7893
 IR Inten    --     3.5532                53.9539                80.9277
 Raman Activ --    11.7567                 9.8272                 3.6969

                    64                     65                     66
                     A                      A                      A
 Frequencies --  1086.8235              1095.5448              1110.2377
 Red. masses --     3.8518                 2.5121                 2.7441
 Frc consts  --     2.6806                 1.7764                 1.9929
 IR Inten    --    34.7428                56.7324                17.9747
 Raman Activ --     0.8771                 1.5911                 4.2644

                    67                     68                     69
                     A                      A                      A
 Frequencies --  1118.6341              1127.8858              1133.6074
 Red. masses --     2.3330                 2.5342                 2.7420
 Frc consts  --     1.7201                 1.8994                 2.0760
 IR Inten    --    19.4582                99.1920               111.9987
 Raman Activ --    13.1418                 4.8174                 2.3049

                    70                     71                     72
                     A                      A                      A
 Frequencies --  1135.9934              1144.8811              1157.2200
 Red. masses --     2.7660                 1.9470                 2.4680
 Frc consts  --     2.1031                 1.5036                 1.9472
 IR Inten    --     2.7394                 6.7705                16.4440
 Raman Activ --    10.1423                 1.8632                 7.8753

                    73                     74                     75
                     A                      A                      A
 Frequencies --  1164.5963              1172.6847              1180.6162
 Red. masses --     1.8517                 1.7572                 1.4202
 Frc consts  --     1.4797                 1.4238                 1.1664
 IR Inten    --    16.0624                18.0389                11.3496
 Raman Activ --     2.1690                 1.2494                 0.7886

                    76                     77                     78
                     A                      A                      A
 Frequencies --  1185.6271              1213.8493              1217.9776
 Red. masses --     1.8740                 1.3529                 1.2405
 Frc consts  --     1.5521                 1.1744                 1.0842
 IR Inten    --     8.9549                 3.1768                12.7221
 Raman Activ --     1.0232                 0.8013                 0.7442

                    79                     80                     81
                     A                      A                      A
 Frequencies --  1222.6566              1246.2291              1254.5394
 Red. masses --     1.3278                 1.2268                 1.2705
 Frc consts  --     1.1695                 1.1226                 1.1781
 IR Inten    --     0.5588                 4.0033                 1.1988
 Raman Activ --     3.6641                 5.9994                 3.4013

                    82                     83                     84
                     A                      A                      A
 Frequencies --  1268.4470              1278.4787              1283.7829
 Red. masses --     1.2549                 1.2725                 1.2599
 Frc consts  --     1.1897                 1.2255                 1.2235
 IR Inten    --     8.5644                22.8661                 8.4375
 Raman Activ --     1.1369                 0.7576                 1.9551

                    85                     86                     87
                     A                      A                      A
 Frequencies --  1294.1159              1303.4643              1307.5365
 Red. masses --     1.3815                 1.1776                 1.3724
 Frc consts  --     1.3631                 1.1789                 1.3824
 IR Inten    --    22.1262                 4.1429                11.1830
 Raman Activ --     2.1761                 4.1349                 4.3111

                    88                     89                     90
                     A                      A                      A
 Frequencies --  1318.5513              1322.2779              1332.4659
 Red. masses --     1.2139                 1.3184                 1.3452
 Frc consts  --     1.2434                 1.3581                 1.4072
 IR Inten    --    67.0265                16.4537                13.4345
 Raman Activ --     3.6941                 2.3432                 6.3475

                    91                     92                     93
                     A                      A                      A
 Frequencies --  1341.1827              1346.3657              1349.4035
 Red. masses --     1.1534                 1.2183                 1.1626
 Frc consts  --     1.2224                 1.3012                 1.2473
 IR Inten    --    18.0406                73.7332                29.2015
 Raman Activ --     6.3402                 2.3710                 5.5080

                    94                     95                     96
                     A                      A                      A
 Frequencies --  1357.5829              1368.6637              1371.0039
 Red. masses --     1.1777                 1.4380                 1.4573
 Frc consts  --     1.2789                 1.5871                 1.6139
 IR Inten    --     9.3230                 3.2247                 2.3896
 Raman Activ --     1.8242                 7.8109                 5.1736

                    97                     98                     99
                     A                      A                      A
 Frequencies --  1372.8140              1392.7089              1400.5966
 Red. masses --     1.6203                 1.3217                 1.4703
 Frc consts  --     1.7992                 1.5104                 1.6994
 IR Inten    --    15.6436                 5.5933                 5.9068
 Raman Activ --     6.6311                 3.9080                 5.1820

                   100                    101                    102
                     A                      A                      A
 Frequencies --  1417.2251              1422.4432              1437.8826
 Red. masses --     1.5122                 1.3680                 1.4774
 Frc consts  --     1.7895                 1.6309                 1.7996
 IR Inten    --    45.9936                11.6194                18.2419
 Raman Activ --     1.0188                 2.1851                 1.1792

                   103                    104                    105
                     A                      A                      A
 Frequencies --  1469.6024              1472.9020              1474.2860
 Red. masses --     1.1025                 1.2846                 1.0743
 Frc consts  --     1.4029                 1.6420                 1.3758
 IR Inten    --     1.3755                52.7175                 7.0007
 Raman Activ --     4.4019                 2.8093                 4.7528

                   106                    107                    108
                     A                      A                      A
 Frequencies --  1484.3779              1530.6393              3249.0941
 Red. masses --     1.3798                 1.2369                 1.0803
 Frc consts  --     1.7913                 1.7074                 6.7190
 IR Inten    --    17.1771                61.3279                19.5519
 Raman Activ --     0.4940                 1.5121                58.1965

                   109                    110                    111
                     A                      A                      A
 Frequencies --  3258.8725              3259.1785              3260.5927
 Red. masses --     1.0569                 1.0597                 1.0798
 Frc consts  --     6.6131                 6.6323                 6.7638
 IR Inten    --    26.8058                61.3247                 4.9976
 Raman Activ --    79.1444               123.0047                38.1894

                   112                    113                    114
                     A                      A                      A
 Frequencies --  3273.1729              3274.4265              3278.0785
 Red. masses --     1.0825                 1.0831                 1.0859
 Frc consts  --     6.8332                 6.8422                 6.8749
 IR Inten    --    11.2858                 1.6893                56.8878
 Raman Activ --    85.0328                83.2548                52.8883

                   115                    116                    117
                     A                      A                      A
 Frequencies --  3287.0045              3287.8397              3291.8072
 Red. masses --     1.0843                 1.0846                 1.0875
 Frc consts  --     6.9027                 6.9079                 6.9433
 IR Inten    --    14.1669                15.2017                54.4034
 Raman Activ --    27.2452               137.0578                 5.1394

                   118                    119                    120
                     A                      A                      A
 Frequencies --  3299.3250              3302.3327              3307.0243
 Red. masses --     1.0837                 1.0710                 1.0867
 Frc consts  --     6.9501                 6.8812                 7.0022
 IR Inten    --    35.4265               225.2060               115.3953
 Raman Activ --    30.3104               228.8003                12.2053

                   121                    122                    123
                     A                      A                      A
 Frequencies --  3312.9698              3316.3740              3322.2455
 Red. masses --     1.1035                 1.0697                 1.1068
 Frc consts  --     7.1363                 6.9316                 7.1974
 IR Inten    --   113.5716               574.3132                48.3383
 Raman Activ --    29.2543                87.8316                37.6915

                   124                    125                    126
                     A                      A                      A
 Frequencies --  3365.8200              3371.3576              3375.2103
 Red. masses --     1.0658                 1.0669                 1.0689
 Frc consts  --     7.1139                 7.1447                 7.1743
 IR Inten    --    35.9925                63.9776                40.2341
 Raman Activ --   124.9728               139.1712               170.0613

                   127                    128                    129
                     A                      A                      A
 Frequencies --  3376.5127              3889.8617              3892.2707
 Red. masses --     1.0670                 1.0675                 1.0675
 Frc consts  --     7.1671                 9.5167                 9.5287
 IR Inten    --    58.3474                68.3190                83.7423
 Raman Activ --   152.9218                94.2807               117.9008

 - Thermochemistry -
 -------------------
 Temperature   298.150 Kelvin.  Pressure   1.00000 Atm.
 Atom     1 has atomic number  8 and mass  15.99491

 Molecular mass:   342.11621 amu.
 Principal axes and moments of inertia in atomic units:
                           1         2         3
     Eigenvalues --  4501.63505********************
           X            0.99997  -0.00820   0.00039
           Y            0.00820   0.99997   0.00033
           Z           -0.00040  -0.00032   1.00000
 This molecule is an asymmetric top.
 Rotational symmetry number  1.
 Warning -- assumption of classical behavior for rotation
           may cause significant error
 Rotational temperatures (Kelvin)      0.01924     0.00701     0.00529
 Rotational constants (GHZ):           0.40091     0.14600     0.11013
    7 imaginary frequencies ignored.
 Zero-point vibrational energy     972498.4 (Joules/Mol)
                                  232.43270 (Kcal/Mol)
 Warning -- explicit consideration of  32 degrees of freedom as
           vibrations may cause significant error
 Vibrational temperatures:     66.53    89.37   105.71   132.55   151.10
          (Kelvin)            226.38   242.07   264.08   302.80   335.70
                              380.54   391.88   406.69   419.02   425.86
                              448.21   472.35   502.95   512.11   550.84
                              570.20   596.71   604.38   635.49   694.18
                              695.87   742.23   764.68   819.24   850.81
                              857.66   881.56   909.15   961.96   984.47
                             1001.91  1003.84  1054.09  1073.79  1137.20
                             1223.47  1242.47  1316.31  1362.10  1389.39
                             1394.59  1400.40  1434.41  1451.08  1471.70
                             1489.67  1510.50  1522.13  1538.34  1542.30
                             1556.70  1563.69  1576.24  1597.38  1609.46
                             1622.77  1631.01  1634.44  1647.23  1664.98
                             1675.59  1687.23  1698.64  1705.85  1746.46
                             1752.40  1759.13  1793.04  1805.00  1825.01
                             1839.44  1847.07  1861.94  1875.39  1881.25
                             1897.10  1902.46  1917.12  1929.66  1937.12
                             1941.49  1953.26  1969.20  1972.57  1975.17
                             2003.79  2015.14  2039.07  2046.58  2068.79
                             2114.43  2119.17  2121.17  2135.69  2202.25
                             4674.72  4688.78  4689.23  4691.26  4709.36
                             4711.16  4716.42  4729.26  4730.46  4736.17
                             4746.99  4751.31  4758.06  4766.62  4771.52
                             4779.96  4842.66  4850.63  4856.17  4858.04
                             5596.64  5600.10

 Zero-point correction=                           0.370405 (Hartree/Particle)
 Thermal correction to Energy=                    0.388907
 Thermal correction to Enthalpy=                  0.389851
 Thermal correction to Gibbs Free Energy=         0.324627
 Sum of electronic and zero-point Energies=          -1297.606040
 Sum of electronic and thermal Energies=             -1297.587539
 Sum of electronic and thermal Enthalpies=           -1297.586594
 Sum of electronic and thermal Free Energies=        -1297.651818

                     E (Thermal)             CV                S
                      KCal/Mol        Cal/Mol-Kelvin    Cal/Mol-Kelvin
 Total                  244.043             76.455            137.275
 Electronic               0.000              0.000              0.000
 Translational            0.889              2.981             43.384
 Rotational               0.889              2.981             35.166
 Vibrational            242.265             70.494             58.725
 Vibration     1          0.595              1.979              4.972
 Vibration     2          0.597              1.972              4.389
 Vibration     3          0.599              1.967              4.058
 Vibration     4          0.602              1.955              3.614
 Vibration     5          0.605              1.945              3.359
 Vibration     6          0.621              1.894              2.581
 Vibration     7          0.625              1.882              2.455
 Vibration     8          0.631              1.862              2.292
 Vibration     9          0.643              1.825              2.040
 Vibration    10          0.654              1.790              1.853
 Vibration    11          0.671              1.738              1.632
 Vibration    12          0.675              1.724              1.581
 Vibration    13          0.682              1.706              1.517
 Vibration    14          0.687              1.690              1.467
 Vibration    15          0.690              1.681              1.439
 Vibration    16          0.700              1.652              1.354
 Vibration    17          0.712              1.619              1.268
 Vibration    18          0.727              1.576              1.168
 Vibration    19          0.731              1.563              1.140
 Vibration    20          0.752              1.507              1.028
 Vibration    21          0.763              1.478              0.976
 Vibration    22          0.778              1.438              0.910
 Vibration    23          0.783              1.427              0.892
 Vibration    24          0.801              1.379              0.821
 Vibration    25          0.839              1.289              0.703
 Vibration    26          0.840              1.286              0.700
 Vibration    27          0.871              1.215              0.620
 Vibration    28          0.886              1.180              0.584
 Vibration    29          0.925              1.097              0.505
 Vibration    30          0.949              1.050              0.465
 Vibration    31          0.954              1.040              0.456
 Vibration    32          0.972              1.005              0.428

 Normal termination of Gaussian 09 at Fri Apr  1 08:17:22 2016.
