 Gaussian 09, Revision B.01,
 Gaussian 09:  EM64L-G09RevB.01 12-Aug-2010

 -------------------------------------------------
 # freq=raman b3lyp/6-31+g(2d,p) geom=connectivity
 -------------------------------------------------

 -----------------
 320 8727/8727.com
 -----------------
 Symbolic Z-matrix:
 Charge =  0 Multiplicity = 1

                         Standard orientation:
 ---------------------------------------------------------------------
 Center     Atomic      Atomic             Coordinates (Angstroms)
 Number     Number       Type             X           Y           Z
 ---------------------------------------------------------------------
      1          8           0        5.056510   -0.473496   -0.215664
      2          6           0        3.752247   -0.123621    0.269900
      3          6           0        3.273541    1.213063   -0.272080
      4          8           0        4.180252    2.230795    0.177253
      5          1           0        5.086012    2.040865   -0.201988
      6          6           0        1.868261    1.623537    0.136855
      7          8           0        1.358087    2.831966   -0.443927
      8          1           0        0.431208    3.013422   -0.115806
      9          6           0        2.878389   -2.585293    0.050194
     10          8           0        4.183357   -3.166128   -0.083851
     11          1           0        4.077956   -4.143841   -0.265370
     12          6           0        2.720383   -1.105093   -0.261266
     13          8           0        1.369546   -0.815488    0.124187
     14          6           0        0.938108    0.493880   -0.274066
     15          8           0       -0.230232    0.529973    0.558642
     16          6           0       -1.495520    0.130201    0.012857
     17          6           0       -2.017378   -1.252570    0.367313
     18          8           0       -1.053732   -2.216204   -0.082457
     19          1           0       -0.137785   -1.947510    0.215229
     20          6           0       -3.416632   -1.520850   -0.161947
     21          8           0       -3.843616   -2.778034    0.382458
     22          1           0       -4.612559   -3.099467   -0.169545
     23          6           0       -2.389871    2.646899    0.018855
     24          8           0       -1.117087    3.275973    0.228963
     25          1           0       -1.200885    4.272222    0.247969
     26          6           0       -2.538105    1.176118    0.372421
     27          8           0       -3.827434    0.951565   -0.216483
     28          6           0       -4.351860   -0.348485    0.087369
     29          8           0       -5.521059   -0.492855   -0.731556
     30          1           0       -6.257166   -0.786063   -0.189545
     31          1           0       -3.115792    3.189984    0.587183
     32          1           0       -2.636635    2.756164   -1.016553
     33          1           0       -2.663249    1.124750    1.433836
     34          1           0       -4.649928   -0.363899    1.114899
     35          1           0       -3.339343   -1.643367   -1.222096
     36          1           0       -2.061769   -1.315818    1.434519
     37          1           0       -1.388932    0.151814   -1.051601
     38          1           0        5.595878   -0.787602    0.513733
     39          1           0        2.215469   -3.124824   -0.593501
     40          1           0        2.556076   -2.740841    1.058569
     41          1           0        2.755961   -1.018529   -1.327165
     42          1           0        3.741869   -0.116467    1.339826
     43          1           0        3.313371    1.174527   -1.340644
     44          1           0        1.838926    1.719910    1.202102
     45          1           0        0.685207    0.533322   -1.313001
 ---------------------------------------------------------------------

 SCF Done:  E(RB3LYP) =  -1297.98725670     A.U. after   13 cycles

 The electronic state is 1-A.
 Alpha  occ. eigenvalues --  -19.18681 -19.18141 -19.17815 -19.17767 -19.17019
 Alpha  occ. eigenvalues --  -19.16918 -19.16472 -19.15907 -19.14496 -19.13742
 Alpha  occ. eigenvalues --  -19.12877 -10.30561 -10.29878 -10.25810 -10.25286
 Alpha  occ. eigenvalues --  -10.25230 -10.25178 -10.24841 -10.24508 -10.24367
 Alpha  occ. eigenvalues --  -10.24225 -10.24101 -10.23632  -1.09779  -1.08992
 Alpha  occ. eigenvalues --   -1.05500  -1.04624  -1.03900  -1.03301  -1.02690
 Alpha  occ. eigenvalues --   -1.02141  -1.01481  -1.00517  -0.99591  -0.81751
 Alpha  occ. eigenvalues --   -0.80150  -0.79578  -0.77908  -0.71902  -0.69823
 Alpha  occ. eigenvalues --   -0.67406  -0.64669  -0.63303  -0.62056  -0.60916
 Alpha  occ. eigenvalues --   -0.59783  -0.56210  -0.55625  -0.54999  -0.54525
 Alpha  occ. eigenvalues --   -0.53765  -0.53180  -0.52738  -0.52065  -0.51362
 Alpha  occ. eigenvalues --   -0.50979  -0.49845  -0.48972  -0.47739  -0.46473
 Alpha  occ. eigenvalues --   -0.45682  -0.44888  -0.44220  -0.43628  -0.42723
 Alpha  occ. eigenvalues --   -0.42423  -0.41800  -0.40974  -0.40023  -0.39290
 Alpha  occ. eigenvalues --   -0.38448  -0.38230  -0.37677  -0.35874  -0.35625
 Alpha  occ. eigenvalues --   -0.35284  -0.34530  -0.33874  -0.33554  -0.32604
 Alpha  occ. eigenvalues --   -0.32275  -0.31300  -0.30812  -0.30508  -0.29407
 Alpha  occ. eigenvalues --   -0.28921  -0.28524  -0.28345  -0.27212  -0.26245
 Alpha  occ. eigenvalues --   -0.26107
 Alpha virt. eigenvalues --   -0.01945  -0.01731  -0.01408   0.00066   0.00384
 Alpha virt. eigenvalues --    0.01131   0.02017   0.02401   0.02680   0.03499
 Alpha virt. eigenvalues --    0.03766   0.04275   0.04846   0.05382   0.05796

 Mulliken atomic charges:
              1
     1  O   -0.534371
     2  C    0.096808
     3  C    0.119221
     4  O   -0.559127
     5  H    0.341330
     6  C   -0.063826
     7  O   -0.597304
     8  H    0.438630
     9  C   -0.266873
    10  O   -0.543340
    11  H    0.338772
    12  C    0.181486
    13  O   -0.220675
    14  C    0.221570
    15  O   -0.205518
    16  C    0.333689
    17  C    0.077785
    18  O   -0.548668
    19  H    0.377743
    20  C    0.030583
    21  O   -0.529539
    22  H    0.332149
    23  C   -0.201793
    24  O   -0.592803
    25  H    0.364679
    26  C   -0.247667
    27  O   -0.232548
    28  C    0.138270
    29  O   -0.532804
    30  H    0.334699
    31  H    0.149959
    32  H    0.158402
    33  H    0.114827
    34  H    0.121648
    35  H    0.135567
    36  H    0.117708
    37  H    0.105353
    38  H    0.343046
    39  H    0.145226
    40  H    0.144162
    41  H    0.103646
    42  H    0.119897
    43  H    0.123176
    44  H    0.134109
    45  H    0.132713
 Sum of Mulliken atomic charges =   0.00000

 Dipole moment (field-independent basis, Debye):
    X=             -2.8363    Y=             -0.5649    Z=              1.3092  Tot=              3.1746
 Quadrupole moment (field-independent basis, Debye-Ang):
   XX=           -121.5242   YY=           -132.3756   ZZ=           -138.3207
   XY=            -12.5161   XZ=             -2.6107   YZ=              3.9256

  Exact polarizability: 235.034   1.787 198.797   0.748  -0.037 143.353
 Approx polarizability: 275.268   1.428 258.197   1.166  -0.324 238.926

 ******    7 imaginary frequencies (negative Signs) ******

                     1                      2                      3
                     A                      A                      A
 Frequencies --  -299.4986              -262.8835              -260.0184
 Red. masses --     1.1467                 1.1982                 1.6511
 Frc consts  --     0.0606                 0.0488                 0.0658
 IR Inten    --    95.6328               110.4610                12.9645
 Raman Activ --     0.7110                 0.9095                 0.2064

                     4                      5                      6
                     A                      A                      A
 Frequencies --  -257.2958               -74.2188               -64.2681
 Red. masses --     1.8477                 6.8035                 6.7126
 Frc consts  --     0.0721                 0.0221                 0.0163
 IR Inten    --     7.8739                 0.8966                 0.4126
 Raman Activ --     0.1579                 0.0242                 0.0257

                     7                      8                      9
                     A                      A                      A
 Frequencies --   -20.8977                40.9393                60.9532
 Red. masses --     6.6648                 6.7865                 6.6707
 Frc consts  --     0.0017                 0.0067                 0.0146
 IR Inten    --     0.0468                 1.5064                 0.4619
 Raman Activ --     0.0204                 0.0198                 0.0314

                    10                     11                     12
                     A                      A                      A
 Frequencies --    81.6423                92.8256                94.9878
 Red. masses --     5.9544                 6.6509                 5.7051
 Frc consts  --     0.0234                 0.0338                 0.0303
 IR Inten    --     1.4583                 1.0121                 1.2112
 Raman Activ --     0.3207                 0.0485                 0.1278

                    13                     14                     15
                     A                      A                      A
 Frequencies --   138.9144               167.9808               188.7565
 Red. masses --     5.8502                 6.4949                 7.3143
 Frc consts  --     0.0665                 0.1080                 0.1535
 IR Inten    --     4.4736                 1.8853                 0.7312
 Raman Activ --     0.1923                 0.8054                 0.5229

                    16                     17                     18
                     A                      A                      A
 Frequencies --   212.6765               237.1094               269.7683
 Red. masses --     7.0656                 5.9803                 5.0295
 Frc consts  --     0.1883                 0.1981                 0.2157
 IR Inten    --     0.1426                 0.6967                 3.8618
 Raman Activ --     2.5991                 0.5900                 0.2108

                    19                     20                     21
                     A                      A                      A
 Frequencies --   277.5287               283.8594               298.2105
 Red. masses --     4.7993                 4.9449                 5.5519
 Frc consts  --     0.2178                 0.2348                 0.2909
 IR Inten    --    10.4315                 4.4641                 6.4581
 Raman Activ --     0.4985                 0.0698                 0.3813

                    22                     23                     24
                     A                      A                      A
 Frequencies --   299.9755               320.3993               325.3560
 Red. masses --     4.8660                 6.3518                 6.9224
 Frc consts  --     0.2580                 0.3842                 0.4317
 IR Inten    --     2.4339                 1.1010                 2.0332
 Raman Activ --     0.2886                 3.6634                 1.9866

                    25                     26                     27
                     A                      A                      A
 Frequencies --   349.7424               360.6824               383.0357
 Red. masses --     6.1343                 4.4790                 6.7789
 Frc consts  --     0.4421                 0.3433                 0.5860
 IR Inten    --    15.9685                 1.4550                 1.5210
 Raman Activ --     1.2055                 1.7984                 1.8601

                    28                     29                     30
                     A                      A                      A
 Frequencies --   403.5358               415.9968               425.1777
 Red. masses --     3.5951                 6.4195                 6.3049
 Frc consts  --     0.3449                 0.6545                 0.6715
 IR Inten    --    18.3643                 2.7900                 0.7946
 Raman Activ --     1.5412                 9.8209                 0.1781

                    31                     32                     33
                     A                      A                      A
 Frequencies --   435.9952               477.9287               490.7357
 Red. masses --     5.3164                 3.8135                 4.5963
 Frc consts  --     0.5954                 0.5132                 0.6522
 IR Inten    --     2.2808                13.5512                 6.4326
 Raman Activ --     2.0428                 0.4570                 5.1600

                    34                     35                     36
                     A                      A                      A
 Frequencies --   502.2301               527.2133               564.3558
 Red. masses --     4.4461                 3.1276                 3.9477
 Frc consts  --     0.6608                 0.5122                 0.7408
 IR Inten    --     7.9421                 9.3939                12.2858
 Raman Activ --     1.3576                 3.9200                 1.8613

                    37                     38                     39
                     A                      A                      A
 Frequencies --   579.2141               596.1778               619.4717
 Red. masses --     2.7804                 5.6378                 5.9800
 Frc consts  --     0.5496                 1.1806                 1.3521
 IR Inten    --    42.2057                 7.8837                12.2547
 Raman Activ --     0.2742                 0.8079                 0.4468

                    40                     41                     42
                     A                      A                      A
 Frequencies --   632.5913               691.9832               693.0238
 Red. masses --     3.7476                 1.0994                 1.1427
 Frc consts  --     0.8836                 0.3102                 0.3234
 IR Inten    --    31.1674                18.5383               159.5974
 Raman Activ --     1.1953                 2.6555                 0.3190

                    43                     44                     45
                     A                      A                      A
 Frequencies --   704.4436               737.5145               740.1698
 Red. masses --     3.8498                 1.0926                 1.0790
 Frc consts  --     1.1256                 0.3502                 0.3483
 IR Inten    --    25.3384               119.0760                85.9446
 Raman Activ --     2.2497                 1.9058                 1.6290

                    46                     47                     48
                     A                      A                      A
 Frequencies --   758.8746               807.9356               855.6983
 Red. masses --     1.0661                 1.0796                 1.7672
 Frc consts  --     0.3617                 0.4152                 0.7624
 IR Inten    --   138.1660                80.6280                 5.8533
 Raman Activ --     2.8624                 1.3619                 2.0441

                    49                     50                     51
                     A                      A                      A
 Frequencies --   867.6770               914.6173               951.3703
 Red. masses --     1.7441                 5.8044                 4.8594
 Frc consts  --     0.7736                 2.8608                 2.5914
 IR Inten    --     3.0951                93.2100                51.5566
 Raman Activ --     1.4576                 2.1190                 0.2430

                    52                     53                     54
                     A                      A                      A
 Frequencies --   972.8089               973.9272               979.2246
 Red. masses --     6.2408                 5.4996                 5.9627
 Frc consts  --     3.4797                 3.0735                 3.3686
 IR Inten    --   111.7837                63.8707               102.7645
 Raman Activ --     1.8819                 2.4616                 1.2934

                    55                     56                     57
                     A                      A                      A
 Frequencies --   999.9479              1009.5958              1017.9949
 Red. masses --     6.3910                 5.8911                 5.3884
 Frc consts  --     3.7651                 3.5378                 3.2900
 IR Inten    --   376.2222                15.8993               139.8175
 Raman Activ --     1.9115                 1.6088                 3.7329

                    58                     59                     60
                     A                      A                      A
 Frequencies --  1046.5765              1056.7112              1063.0192
 Red. masses --     5.3210                 6.2375                 4.4566
 Frc consts  --     3.4339                 4.1037                 2.9672
 IR Inten    --   349.8425                14.4721               112.7123
 Raman Activ --     2.9960                 3.2847                 2.9966

                    61                     62                     63
                     A                      A                      A
 Frequencies --  1066.0692              1071.6758              1082.2032
 Red. masses --     4.9804                 3.1330                 5.8363
 Frc consts  --     3.3349                 2.1200                 4.0272
 IR Inten    --    58.9567                20.8215                52.7196
 Raman Activ --     4.1215                32.4966                 2.9554

                    64                     65                     66
                     A                      A                      A
 Frequencies --  1093.2412              1100.3048              1105.2702
 Red. masses --     2.8070                 3.2978                 2.8407
 Frc consts  --     1.9766                 2.3524                 2.0446
 IR Inten    --    78.1505                38.5137                16.3965
 Raman Activ --    10.0179                 8.0446                 3.7385

                    67                     68                     69
                     A                      A                      A
 Frequencies --  1116.9603              1124.4381              1136.0461
 Red. masses --     3.5715                 2.2742                 2.4804
 Frc consts  --     2.6253                 1.6941                 1.8861
 IR Inten    --    10.3505                64.3824                 4.2390
 Raman Activ --     1.5233                 6.2924                 1.6501

                    70                     71                     72
                     A                      A                      A
 Frequencies --  1147.6896              1151.0358              1165.1327
 Red. masses --     2.3745                 2.2245                 2.3926
 Frc consts  --     1.8428                 1.7365                 1.9137
 IR Inten    --    27.6643                10.5278                14.5311
 Raman Activ --     7.7423                 3.1193                 7.8101

                    73                     74                     75
                     A                      A                      A
 Frequencies --  1167.7184              1195.3078              1200.4095
 Red. masses --     1.5143                 1.4764                 1.5782
 Frc consts  --     1.2166                 1.2428                 1.3399
 IR Inten    --     0.0911                29.3335                17.8719
 Raman Activ --     1.2127                 1.8160                 1.4137

                    76                     77                     78
                     A                      A                      A
 Frequencies --  1213.7094              1217.3686              1218.8068
 Red. masses --     1.4795                 1.2116                 1.3928
 Frc consts  --     1.2840                 1.0579                 1.2190
 IR Inten    --     2.4234                 3.7042                12.9856
 Raman Activ --     1.7394                 0.4681                 2.2205

                    79                     80                     81
                     A                      A                      A
 Frequencies --  1226.3886              1243.4546              1259.2917
 Red. masses --     1.2846                 1.2577                 1.2170
 Frc consts  --     1.1383                 1.1457                 1.1371
 IR Inten    --    16.8206                 7.8847                12.4552
 Raman Activ --     0.7890                 2.1568                 0.2941

                    82                     83                     84
                     A                      A                      A
 Frequencies --  1264.2666              1280.3455              1282.2891
 Red. masses --     1.2083                 1.3462                 1.2976
 Frc consts  --     1.1379                 1.3003                 1.2571
 IR Inten    --    14.4495                16.6862                 0.8914
 Raman Activ --     0.9411                 2.1446                 2.8390

                    85                     86                     87
                     A                      A                      A
 Frequencies --  1291.7263              1305.3047              1308.0715
 Red. masses --     1.2827                 1.3039                 1.3890
 Frc consts  --     1.2610                 1.3089                 1.4003
 IR Inten    --     6.0197                31.0006                23.3105
 Raman Activ --     2.2419                 1.5209                 3.7397

                    88                     89                     90
                     A                      A                      A
 Frequencies --  1313.5373              1326.3374              1331.8868
 Red. masses --     1.2141                 1.3326                 1.2495
 Frc consts  --     1.2342                 1.3812                 1.3059
 IR Inten    --    11.8501                 7.5186                 9.2428
 Raman Activ --    10.8625                12.3316                 1.6993

                    91                     92                     93
                     A                      A                      A
 Frequencies --  1336.8660              1340.2513              1345.4878
 Red. masses --     1.4444                 1.2402                 1.1539
 Frc consts  --     1.5209                 1.3126                 1.2307
 IR Inten    --    63.8084                30.7460                23.0763
 Raman Activ --     5.1431                 2.3120                 0.8915

                    94                     95                     96
                     A                      A                      A
 Frequencies --  1350.9489              1375.1137              1380.3261
 Red. masses --     1.2036                 1.3803                 1.3946
 Frc consts  --     1.2942                 1.5378                 1.5655
 IR Inten    --    50.2702                 8.0285                 5.9913
 Raman Activ --     0.6835                 6.3377                 7.9940

                    97                     98                     99
                     A                      A                      A
 Frequencies --  1384.8219              1401.2057              1403.8429
 Red. masses --     1.4446                 1.4632                 1.4600
 Frc consts  --     1.6323                 1.6926                 1.6953
 IR Inten    --     3.4960                 5.2787                 4.0702
 Raman Activ --     5.6175                 6.1638                 5.7796

                   100                    101                    102
                     A                      A                      A
 Frequencies --  1438.0780              1441.5568              1457.7700
 Red. masses --     1.3188                 1.3207                 1.4604
 Frc consts  --     1.6069                 1.6170                 1.8286
 IR Inten    --    45.3397                18.0389                23.9279
 Raman Activ --     0.5756                 3.2855                 0.6339

                   103                    104                    105
                     A                      A                      A
 Frequencies --  1466.7189              1474.6204              1477.5039
 Red. masses --     1.3306                 1.1899                 1.0764
 Frc consts  --     1.6866                 1.5245                 1.3845
 IR Inten    --    23.4839                 1.5686                 1.2338
 Raman Activ --     3.5400                 2.6832                 4.7999

                   106                    107                    108
                     A                      A                      A
 Frequencies --  1481.5501              1517.3810              3227.8635
 Red. masses --     1.2621                 1.2332                 1.0691
 Frc consts  --     1.6322                 1.6729                 6.5630
 IR Inten    --    34.6123                31.3922              1147.0112
 Raman Activ --     2.4125                 1.2971               174.5728

                   109                    110                    111
                     A                      A                      A
 Frequencies --  3256.2283              3259.0127              3259.9743
 Red. masses --     1.0582                 1.0817                 1.0815
 Frc consts  --     6.6106                 6.7693                 6.7720
 IR Inten    --    38.4060                 6.6570                38.8936
 Raman Activ --    92.9352                46.6757                12.0025

                   112                    113                    114
                     A                      A                      A
 Frequencies --  3265.9852              3266.6577              3271.9208
 Red. masses --     1.0794                 1.0592                 1.0833
 Frc consts  --     6.7835                 6.6596                 6.8331
 IR Inten    --    15.5461                 5.5876                21.5297
 Raman Activ --    23.1468               202.8823               160.8276

                   115                    116                    117
                     A                      A                      A
 Frequencies --  3276.5048              3280.1501              3288.1185
 Red. masses --     1.0820                 1.0851                 1.0845
 Frc consts  --     6.8438                 6.8785                 6.9082
 IR Inten    --     6.9724                10.5250                 0.8070
 Raman Activ --   127.3737                21.9881                14.5460

                   118                    119                    120
                     A                      A                      A
 Frequencies --  3295.4830              3296.6647              3304.4492
 Red. masses --     1.0864                 1.0865                 1.0876
 Frc consts  --     6.9518                 6.9573                 6.9971
 IR Inten    --    77.6328                 6.4109                65.2565
 Raman Activ --     7.3051                48.5204                10.1276

                   121                    122                    123
                     A                      A                      A
 Frequencies --  3311.3747              3318.5296              3320.8179
 Red. masses --     1.1029                 1.0710                 1.1069
 Frc consts  --     7.1251                 6.9489                 7.1921
 IR Inten    --    81.6109               517.4290                42.2966
 Raman Activ --    22.8588               161.6117                50.3484

                   124                    125                    126
                     A                      A                      A
 Frequencies --  3368.4241              3369.0296              3371.9524
 Red. masses --     1.0678                 1.0660                 1.0669
 Frc consts  --     7.1383                 7.1286                 7.1470
 IR Inten    --    35.9343                39.5387                66.3062
 Raman Activ --   131.4659               156.5358               144.3238

                   127                    128                    129
                     A                      A                      A
 Frequencies --  3375.8577              3892.1787              3893.6059
 Red. masses --     1.0663                 1.0673                 1.0675
 Frc consts  --     7.1596                 9.5266                 9.5350
 IR Inten    --    32.1315                79.7984                83.2479
 Raman Activ --   159.1750               105.3175                92.6631

 - Thermochemistry -
 -------------------
 Temperature   298.150 Kelvin.  Pressure   1.00000 Atm.
 Atom     1 has atomic number  8 and mass  15.99491

 Molecular mass:   342.11621 amu.
 Principal axes and moments of inertia in atomic units:
                           1         2         3
     Eigenvalues --  4412.35644********************
           X            0.99998  -0.00695  -0.00107
           Y            0.00695   0.99998   0.00126
           Z            0.00106  -0.00127   1.00000
 This molecule is an asymmetric top.
 Rotational symmetry number  1.
 Warning -- assumption of classical behavior for rotation
           may cause significant error
 Rotational temperatures (Kelvin)      0.01963     0.00703     0.00529
 Rotational constants (GHZ):           0.40902     0.14649     0.11020
    7 imaginary frequencies ignored.
 Zero-point vibrational energy     974060.5 (Joules/Mol)
                                  232.80604 (Kcal/Mol)
 Warning -- explicit consideration of  32 degrees of freedom as
           vibrations may cause significant error
 Vibrational temperatures:     58.90    87.70   117.46   133.56   136.67
          (Kelvin)            199.87   241.69   271.58   305.99   341.15
                              388.14   399.30   408.41   429.06   431.60
                              460.98   468.11   503.20   518.94   551.10
                              580.60   598.53   611.74   627.30   687.63
                              706.06   722.60   758.54   811.98   833.36
                              857.77   891.28   910.16   995.61   997.11
                             1013.54  1061.12  1064.94  1091.85  1162.44
                             1231.16  1248.39  1315.93  1368.81  1399.65
                             1401.26  1408.88  1438.70  1452.58  1464.67
                             1505.79  1520.37  1529.45  1533.83  1541.90
                             1557.05  1572.93  1583.09  1590.24  1607.05
                             1617.81  1634.51  1651.27  1656.08  1676.36
                             1680.08  1719.78  1727.12  1746.25  1751.52
                             1753.59  1764.50  1789.05  1811.84  1819.00
                             1842.13  1844.93  1858.50  1878.04  1882.02
                             1889.88  1908.30  1916.29  1923.45  1928.32
                             1935.85  1943.71  1978.48  1985.98  1992.45
                             2016.02  2019.81  2069.07  2074.08  2097.40
                             2110.28  2121.65  2125.80  2131.62  2183.17
                             4644.17  4684.98  4688.99  4690.37  4699.02
                             4699.99  4707.56  4714.15  4719.40  4730.86
                             4741.46  4743.16  4754.36  4764.32  4774.62
                             4777.91  4846.40  4847.28  4851.48  4857.10
                             5599.97  5602.02

 Zero-point correction=                           0.371000 (Hartree/Particle)
 Thermal correction to Energy=                    0.389437
 Thermal correction to Enthalpy=                  0.390381
 Thermal correction to Gibbs Free Energy=         0.325143
 Sum of electronic and zero-point Energies=          -1297.616257
 Sum of electronic and thermal Energies=             -1297.597820
 Sum of electronic and thermal Enthalpies=           -1297.596876
 Sum of electronic and thermal Free Energies=        -1297.662113

                     E (Thermal)             CV                S
                      KCal/Mol        Cal/Mol-Kelvin    Cal/Mol-Kelvin
 Total                  244.375             76.065            137.305
 Electronic               0.000              0.000              0.000
 Translational            0.889              2.981             43.384
 Rotational               0.889              2.981             35.142
 Vibrational            242.598             70.104             58.778
 Vibration     1          0.594              1.981              5.213
 Vibration     2          0.597              1.973              4.426
 Vibration     3          0.600              1.962              3.851
 Vibration     4          0.602              1.954              3.600
 Vibration     5          0.603              1.953              3.555
 Vibration     6          0.615              1.914              2.819
 Vibration     7          0.625              1.882              2.458
 Vibration     8          0.633              1.855              2.240
 Vibration     9          0.644              1.822              2.021
 Vibration    10          0.656              1.784              1.824
 Vibration    11          0.674              1.729              1.598
 Vibration    12          0.679              1.715              1.549
 Vibration    13          0.682              1.704              1.510
 Vibration    14          0.691              1.677              1.427
 Vibration    15          0.693              1.674              1.417
 Vibration    16          0.706              1.635              1.308
 Vibration    17          0.709              1.625              1.283
 Vibration    18          0.727              1.576              1.167
 Vibration    19          0.735              1.553              1.119
 Vibration    20          0.752              1.506              1.027
 Vibration    21          0.769              1.462              0.950
 Vibration    22          0.779              1.435              0.906
 Vibration    23          0.787              1.415              0.875
 Vibration    24          0.796              1.392              0.839
 Vibration    25          0.834              1.299              0.716
 Vibration    26          0.847              1.271              0.682
 Vibration    27          0.858              1.245              0.653
 Vibration    28          0.882              1.190              0.593
 Vibration    29          0.920              1.108              0.515
 Vibration    30          0.936              1.076              0.487
 Vibration    31          0.954              1.040              0.456
 Vibration    32          0.979              0.991              0.417

 Normal termination of Gaussian 09 at Fri Mar 25 16:55:34 2016.
