 Gaussian 09, Revision B.01,
 Gaussian 09:  EM64L-G09RevB.01 12-Aug-2010

 --------------------------------------------------
 # freq=raman b3lyp/6-31+g(2df,p) geom=connectivity
 --------------------------------------------------

 ------------
 280 5000.com
 ------------
 Symbolic Z-matrix:
 Charge =  0 Multiplicity = 1

                         Standard orientation:
 ---------------------------------------------------------------------
 Center     Atomic      Atomic             Coordinates (Angstroms)
 Number     Number       Type             X           Y           Z
 ---------------------------------------------------------------------
      1          8           0       -5.139455   -0.365373    0.326793
      2          6           0       -3.783398   -0.193342   -0.109493
      3          6           0       -3.323981    1.222267    0.200734
      4          8           0       -4.101798    2.226482   -0.465952
      5          1           0       -5.076285    1.999782   -0.468869
      6          6           0       -1.866506    1.485840   -0.138757
      7          8           0       -1.429196    2.788056    0.278463
      8          1           0       -0.473131    2.901532    0.006800
      9          6           0       -3.026971   -2.591842   -0.127220
     10          8           0       -4.216197   -3.249824    0.332368
     11          1           0       -4.141718   -4.235029    0.178066
     12          6           0       -2.740805   -1.186149    0.376847
     13          8           0       -1.399537   -0.845249   -0.002121
     14          6           0       -0.908352    0.439726    0.407603
     15          8           0        0.257328    0.587611   -0.415315
     16          6           0        1.543157    0.193878    0.086129
     17          6           0        2.111358   -1.072118   -0.533397
     18          8           0        1.256678   -2.218578   -0.409455
     19          1           0        0.327523   -1.860696   -0.509355
     20          6           0        3.413415   -1.494572    0.129133
     21          8           0        3.950480   -2.675102   -0.485197
     22          1           0        4.838048   -2.941166   -0.109370
     23          6           0        2.238699    2.634355    0.154980
     24          8           0        1.082512    3.310936   -0.359849
     25          1           0        1.238923    4.272315   -0.136964
     26          6           0        2.607035    1.220394   -0.263978
     27          8           0        3.805546    0.903596    0.459345
     28          6           0        4.375928   -0.327233   -0.009816
     29          8           0        5.557568   -0.608145    0.744980
     30          1           0       -5.699086   -0.546897   -0.431799
     31          1           0       -3.440599    1.371676    1.253814
     32          1           0       -3.801122   -0.279525   -1.175870
     33          1           0       -1.786090    1.455822   -1.205309
     34          1           0       -2.783587   -1.206141    1.445805
     35          1           0       -2.193310   -3.207053    0.140035
     36          1           0       -3.073464   -2.549019   -1.195351
     37          1           0       -0.714499    0.522889    1.456605
     38          1           0        3.082189    3.251381   -0.074591
     39          1           0        2.802406    1.194370   -1.315668
     40          1           0        1.492659    0.079990    1.148851
     41          1           0        2.296353   -0.892084   -1.571792
     42          1           0        3.236449   -1.685436    1.166993
     43          1           0        4.640389   -0.216388   -1.040676
     44          1           0        2.137156    2.621590    1.220074
     45          1           0        6.261907   -0.874413    0.149490
 ---------------------------------------------------------------------

 SCF Done:  E(RB3LYP) =  -1298.01882673     A.U. after   13 cycles

 The electronic state is 1-A.
 Alpha  occ. eigenvalues --  -19.19204 -19.18601 -19.18269 -19.18213 -19.18094
 Alpha  occ. eigenvalues --  -19.16820 -19.16410 -19.16176 -19.14708 -19.14204
 Alpha  occ. eigenvalues --  -19.12305 -10.30588 -10.30484 -10.26527 -10.25802
 Alpha  occ. eigenvalues --  -10.25558 -10.25409 -10.24847 -10.24735 -10.24296
 Alpha  occ. eigenvalues --  -10.24009 -10.23632 -10.23334  -1.09856  -1.09168
 Alpha  occ. eigenvalues --   -1.05993  -1.04858  -1.04102  -1.03652  -1.02851
 Alpha  occ. eigenvalues --   -1.02380  -1.01365  -1.00628  -0.99088  -0.82665
 Alpha  occ. eigenvalues --   -0.80122  -0.79529  -0.78031  -0.72072  -0.69723
 Alpha  occ. eigenvalues --   -0.67141  -0.64783  -0.63007  -0.62520  -0.61826
 Alpha  occ. eigenvalues --   -0.59805  -0.56466  -0.55792  -0.55076  -0.54872
 Alpha  occ. eigenvalues --   -0.54053  -0.53529  -0.52930  -0.51591  -0.50781
 Alpha  occ. eigenvalues --   -0.50544  -0.50185  -0.49484  -0.48556  -0.46640
 Alpha  occ. eigenvalues --   -0.46069  -0.45191  -0.44135  -0.43675  -0.43349
 Alpha  occ. eigenvalues --   -0.42436  -0.41508  -0.40870  -0.40436  -0.39735
 Alpha  occ. eigenvalues --   -0.38356  -0.38027  -0.37832  -0.35999  -0.35384
 Alpha  occ. eigenvalues --   -0.35091  -0.34632  -0.34369  -0.34336  -0.33403
 Alpha  occ. eigenvalues --   -0.32802  -0.31420  -0.31238  -0.30400  -0.29613
 Alpha  occ. eigenvalues --   -0.29264  -0.28723  -0.28623  -0.27010  -0.26615
 Alpha  occ. eigenvalues --   -0.26024
 Alpha virt. eigenvalues --   -0.02182  -0.02037  -0.01803  -0.00305   0.00105
 Alpha virt. eigenvalues --    0.00938   0.01697   0.02365   0.03068   0.03478
 Alpha virt. eigenvalues --    0.03757   0.04383   0.04491   0.05196   0.05715

 Mulliken atomic charges:
              1
     1  O   -0.440744
     2  C   -0.286274
     3  C    0.104011
     4  O   -0.475851
     5  H    0.345111
     6  C    0.082107
     7  O   -0.531573
     8  H    0.463022
     9  C   -0.264571
    10  O   -0.450235
    11  H    0.348639
    12  C    0.042724
    13  O    0.000294
    14  C   -0.138013
    15  O    0.000560
    16  C   -0.111458
    17  C    0.013470
    18  O   -0.460642
    19  H    0.382066
    20  C    0.041156
    21  O   -0.460285
    22  H    0.344468
    23  C   -0.434414
    24  O   -0.478532
    25  H    0.362212
    26  C   -0.002472
    27  O   -0.062114
    28  C   -0.054628
    29  O   -0.486148
    30  H    0.352557
    31  H    0.128562
    32  H    0.119522
    33  H    0.138126
    34  H    0.116263
    35  H    0.148464
    36  H    0.142392
    37  H    0.141589
    38  H    0.152162
    39  H    0.134738
    40  H    0.126029
    41  H    0.126069
    42  H    0.137438
    43  H    0.130508
    44  H    0.162613
    45  H    0.351082
 Sum of Mulliken atomic charges =   0.00000

 Dipole moment (field-independent basis, Debye):
    X=              2.8077    Y=             -0.4716    Z=             -1.4728  Tot=              3.2054
 Quadrupole moment (field-independent basis, Debye-Ang):
   XX=           -119.5132   YY=           -135.5290   ZZ=           -139.5354
   XY=             14.5899   XZ=              2.2345   YZ=              0.3622

  Exact polarizability: 234.404  -1.850 197.560   1.517   0.844 144.363
 Approx polarizability: 274.970  -2.208 257.547   1.313   0.902 239.210

 ******    7 imaginary frequencies (negative Signs) ******

                     1                      2                      3
                     A                      A                      A
 Frequencies --  -284.5664              -274.3203              -240.9674
 Red. masses --     1.7198                 1.7907                 1.2239
 Frc consts  --     0.0821                 0.0794                 0.0419
 IR Inten    --     2.4779                10.3018               125.8911
 Raman Activ --     0.0295                 0.0438                 1.0747

                     4                      5                      6
                     A                      A                      A
 Frequencies --  -193.1771               -70.3773               -43.4417
 Red. masses --     1.2433                 6.6915                 6.3565
 Frc consts  --     0.0273                 0.0195                 0.0071
 IR Inten    --    98.0087                 0.8656                 0.2140
 Raman Activ --     0.6827                 0.0329                 0.0225

                     7                      8                      9
                     A                      A                      A
 Frequencies --   -18.3373                51.2670                59.8962
 Red. masses --     6.2228                 6.8139                 6.2693
 Frc consts  --     0.0012                 0.0106                 0.0133
 IR Inten    --     2.9303                 0.0361                 2.1709
 Raman Activ --     0.0456                 0.0230                 0.0806

                    10                     11                     12
                     A                      A                      A
 Frequencies --    78.1048                83.8406               135.4030
 Red. masses --     6.6347                 7.0169                 5.6644
 Frc consts  --     0.0238                 0.0291                 0.0612
 IR Inten    --     0.4357                 1.1454                 0.9026
 Raman Activ --     0.3420                 0.0416                 0.0420

                    13                     14                     15
                     A                      A                      A
 Frequencies --   152.5112               181.0681               187.2434
 Red. masses --     6.1197                 5.9221                 7.7907
 Frc consts  --     0.0839                 0.1144                 0.1609
 IR Inten    --     2.4928                 3.5983                 2.3238
 Raman Activ --     0.3848                 0.4858                 0.6712

                    16                     17                     18
                     A                      A                      A
 Frequencies --   214.0143               231.8414               252.9554
 Red. masses --     7.1253                 5.7077                 4.5623
 Frc consts  --     0.1923                 0.1808                 0.1720
 IR Inten    --     0.0625                 4.0530                20.5084
 Raman Activ --     2.2349                 0.7380                 0.1781

                    19                     20                     21
                     A                      A                      A
 Frequencies --   286.5414               294.7415               300.5681
 Red. masses --     4.1274                 4.3113                 5.5335
 Frc consts  --     0.1997                 0.2207                 0.2945
 IR Inten    --     1.3200                 2.0566                 3.5696
 Raman Activ --     0.1803                 0.4393                 0.5857

                    22                     23                     24
                     A                      A                      A
 Frequencies --   312.8900               316.3920               317.0890
 Red. masses --     5.0344                 5.8286                 6.9529
 Frc consts  --     0.2904                 0.3438                 0.4119
 IR Inten    --     6.1800                 1.7812                 3.5152
 Raman Activ --     0.3250                 3.5507                 3.0847

                    25                     26                     27
                     A                      A                      A
 Frequencies --   344.2163               358.4410               377.7051
 Red. masses --     5.8340                 5.3791                 5.1703
 Frc consts  --     0.4073                 0.4072                 0.4346
 IR Inten    --    13.4245                 1.4689                 1.2649
 Raman Activ --     1.0237                 1.6079                 0.3561

                    28                     29                     30
                     A                      A                      A
 Frequencies --   402.1984               421.1833               432.4409
 Red. masses --     4.2560                 6.5961                 5.3580
 Frc consts  --     0.4056                 0.6894                 0.5903
 IR Inten    --    13.4007                 2.6293                 1.0983
 Raman Activ --     2.1303                 6.5817                 3.1046

                    31                     32                     33
                     A                      A                      A
 Frequencies --   437.4171               468.8446               486.9090
 Red. masses --     5.0558                 4.4830                 4.3442
 Frc consts  --     0.5699                 0.5806                 0.6068
 IR Inten    --     3.3235                 4.0818                14.4360
 Raman Activ --     1.4978                 3.5035                 1.4800

                    34                     35                     36
                     A                      A                      A
 Frequencies --   510.6017               520.7249               566.3575
 Red. masses --     3.2219                 3.3615                 4.5229
 Frc consts  --     0.4949                 0.5370                 0.8548
 IR Inten    --     9.7102                 4.6411                17.1666
 Raman Activ --     2.3358                 3.4594                 1.8169

                    37                     38                     39
                     A                      A                      A
 Frequencies --   584.6115               597.3858               607.5767
 Red. masses --     4.3121                 3.6195                 5.4792
 Frc consts  --     0.8683                 0.7610                 1.1917
 IR Inten    --     7.8981                21.3849                25.2340
 Raman Activ --     0.9761                 0.8646                 0.7678

                    40                     41                     42
                     A                      A                      A
 Frequencies --   629.0080               677.7018               695.7057
 Red. masses --     3.4841                 4.9558                 1.0776
 Frc consts  --     0.8122                 1.3410                 0.3073
 IR Inten    --    18.8905                17.8550                94.2079
 Raman Activ --     0.5041                 1.1890                 2.1192

                    43                     44                     45
                     A                      A                      A
 Frequencies --   709.3822               726.8192               753.1875
 Red. masses --     1.0503                 1.0535                 1.0976
 Frc consts  --     0.3114                 0.3279                 0.3669
 IR Inten    --    89.8048                89.8172               102.8216
 Raman Activ --     1.9438                 1.8831                 1.4295

                    46                     47                     48
                     A                      A                      A
 Frequencies --   801.8974               848.1807               853.6659
 Red. masses --     1.0827                 1.7741                 1.5027
 Frc consts  --     0.4102                 0.7520                 0.6452
 IR Inten    --    88.3479                 5.7095                12.4464
 Raman Activ --     1.8050                 0.5679                 0.5165

                    49                     50                     51
                     A                      A                      A
 Frequencies --   883.1589               913.9996               958.2713
 Red. masses --     1.2494                 4.5719                 4.0060
 Frc consts  --     0.5741                 2.2503                 2.1674
 IR Inten    --    64.1416                69.2068                67.1846
 Raman Activ --     0.7362                 1.7295                 0.5648

                    52                     53                     54
                     A                      A                      A
 Frequencies --   970.1396               989.3815               992.8481
 Red. masses --     5.5164                 5.2292                 5.7907
 Frc consts  --     3.0590                 3.0159                 3.3631
 IR Inten    --    17.0644               130.9769               220.8496
 Raman Activ --     3.0496                 2.1116                 0.9629

                    55                     56                     57
                     A                      A                      A
 Frequencies --  1000.9823              1010.9827              1024.5002
 Red. masses --     6.3148                 6.3458                 5.0568
 Frc consts  --     3.7279                 3.8214                 3.1271
 IR Inten    --   166.2229                35.1392               287.5049
 Raman Activ --     1.7059                 3.1218                 2.9034

                    58                     59                     60
                     A                      A                      A
 Frequencies --  1033.5855              1048.9332              1064.3454
 Red. masses --     7.5151                 4.9023                 4.5546
 Frc consts  --     4.7302                 3.1780                 3.0400
 IR Inten    --   404.8310                51.0660                75.2352
 Raman Activ --     1.6182                 2.1292                14.0569

                    61                     62                     63
                     A                      A                      A
 Frequencies --  1069.8273              1071.9235              1079.9991
 Red. masses --     4.5259                 4.2832                 2.9755
 Frc consts  --     3.0520                 2.8997                 2.0448
 IR Inten    --    33.3080                92.1282                35.9337
 Raman Activ --     0.5164                 0.4589                10.6767

                    64                     65                     66
                     A                      A                      A
 Frequencies --  1092.2518              1098.4864              1114.5546
 Red. masses --     2.3836                 2.9717                 2.6087
 Frc consts  --     1.6754                 2.1127                 1.9093
 IR Inten    --     9.0358                29.3668                17.6351
 Raman Activ --     4.6921                11.9455                 8.9162

                    67                     68                     69
                     A                      A                      A
 Frequencies --  1120.2723              1120.5374              1128.8467
 Red. masses --     2.4676                 2.7416                 2.1967
 Frc consts  --     1.8246                 2.0282                 1.6493
 IR Inten    --    59.4015                 7.8740                31.9355
 Raman Activ --     1.5746                12.4390                 7.8588

                    70                     71                     72
                     A                      A                      A
 Frequencies --  1138.9037              1145.7057              1155.8923
 Red. masses --     2.5551                 2.2912                 1.9869
 Frc consts  --     1.9527                 1.7720                 1.5641
 IR Inten    --    18.0543                 6.2340                15.9912
 Raman Activ --     3.0221                 4.4765                 1.3487

                    73                     74                     75
                     A                      A                      A
 Frequencies --  1163.0116              1175.3425              1183.5847
 Red. masses --     2.2499                 1.8475                 1.9994
 Frc consts  --     1.7930                 1.5037                 1.6503
 IR Inten    --    38.5209                 4.2268                16.5976
 Raman Activ --     4.2897                 2.6070                 1.6110

                    76                     77                     78
                     A                      A                      A
 Frequencies --  1201.5625              1207.5192              1212.2460
 Red. masses --     1.4551                 1.2232                 1.2729
 Frc consts  --     1.2377                 1.0509                 1.1021
 IR Inten    --     8.0061                 4.4743                12.9878
 Raman Activ --     2.3793                 2.2270                 3.0536

                    79                     80                     81
                     A                      A                      A
 Frequencies --  1223.8818              1241.8863              1249.9073
 Red. masses --     1.2721                 1.3349                 1.2328
 Frc consts  --     1.1227                 1.2130                 1.1347
 IR Inten    --     3.3077                23.6529                10.3206
 Raman Activ --     1.7418                 1.2815                 1.0573

                    82                     83                     84
                     A                      A                      A
 Frequencies --  1255.6313              1276.4654              1288.6212
 Red. masses --     1.1719                 1.3845                 1.3277
 Frc consts  --     1.0886                 1.3291                 1.2990
 IR Inten    --    17.9617                56.3364                 7.2151
 Raman Activ --     1.2447                 4.9280                 1.1538

                    85                     86                     87
                     A                      A                      A
 Frequencies --  1290.6932              1293.8173              1298.0568
 Red. masses --     1.2100                 1.3274                 1.2681
 Frc consts  --     1.1876                 1.3091                 1.2589
 IR Inten    --     7.3921                 9.1258                30.5933
 Raman Activ --     7.1343                 1.2594                 1.9006

                    88                     89                     90
                     A                      A                      A
 Frequencies --  1305.7822              1313.5183              1325.9898
 Red. masses --     1.2556                 1.2175                 1.3329
 Frc consts  --     1.2614                 1.2376                 1.3808
 IR Inten    --     9.9563                12.8738                14.1317
 Raman Activ --     6.1489                 8.6275                 1.9985

                    91                     92                     93
                     A                      A                      A
 Frequencies --  1327.2619              1330.9068              1339.0316
 Red. masses --     1.1833                 1.3008                 1.3606
 Frc consts  --     1.2282                 1.3576                 1.4374
 IR Inten    --    45.5274                 7.0269                46.0562
 Raman Activ --     2.6539                 6.6663                 1.9331

                    94                     95                     96
                     A                      A                      A
 Frequencies --  1353.6977              1357.1821              1361.2704
 Red. masses --     1.3862                 1.2444                 1.5633
 Frc consts  --     1.4966                 1.3505                 1.7068
 IR Inten    --     2.6165                20.0927                23.6337
 Raman Activ --     5.8029                 8.4944                 6.4027

                    97                     98                     99
                     A                      A                      A
 Frequencies --  1373.4725              1386.1374              1392.6387
 Red. masses --     1.2782                 1.4912                 1.5402
 Frc consts  --     1.4207                 1.6881                 1.7600
 IR Inten    --     8.2576                11.4112                30.2226
 Raman Activ --     1.7030                 1.9897                 2.3688

                   100                    101                    102
                     A                      A                      A
 Frequencies --  1394.2316              1407.9570              1451.1096
 Red. masses --     1.4092                 1.5161                 1.3671
 Frc consts  --     1.6140                 1.7707                 1.6962
 IR Inten    --     6.7044                13.0152                18.3822
 Raman Activ --     1.7628                 5.0341                 2.3513

                   103                    104                    105
                     A                      A                      A
 Frequencies --  1465.6050              1468.9540              1479.4658
 Red. masses --     1.0727                 1.1032                 1.3867
 Frc consts  --     1.3576                 1.4026                 1.7883
 IR Inten    --     5.9789                 1.9804                24.3245
 Raman Activ --     4.7730                 3.2352                 0.4487

                   106                    107                    108
                     A                      A                      A
 Frequencies --  1502.6860              1524.3203              3215.1372
 Red. masses --     1.2622                 1.2269                 1.0691
 Frc consts  --     1.6792                 1.6796                 6.5113
 IR Inten    --    44.1174                42.6062              1070.6222
 Raman Activ --     1.4032                 1.0627               167.7588

                   109                    110                    111
                     A                      A                      A
 Frequencies --  3252.0028              3258.6848              3261.1037
 Red. masses --     1.0578                 1.0586                 1.0802
 Frc consts  --     6.5911                 6.6235                 6.7682
 IR Inten    --    30.4733                13.1288                 1.0264
 Raman Activ --    75.2440               159.0776               144.1092

                   112                    113                    114
                     A                      A                      A
 Frequencies --  3266.7474              3267.1838              3271.9639
 Red. masses --     1.0827                 1.0813                 1.0840
 Frc consts  --     6.8073                 6.8004                 6.8376
 IR Inten    --    27.5894                10.9228                 5.3164
 Raman Activ --    22.5669                14.0960                22.6981

                   115                    116                    117
                     A                      A                      A
 Frequencies --  3277.4762              3278.5318              3287.5386
 Red. masses --     1.0839                 1.0829                 1.0861
 Frc consts  --     6.8601                 6.8579                 6.9160
 IR Inten    --    18.9506                 8.1010                15.7021
 Raman Activ --     9.7023               257.6830                16.9936

                   118                    119                    120
                     A                      A                      A
 Frequencies --  3288.8314              3299.2485              3303.3097
 Red. masses --     1.0859                 1.0878                 1.0873
 Frc consts  --     6.9206                 6.9761                 6.9906
 IR Inten    --    38.1886                42.4139                43.4881
 Raman Activ --     5.7338                 4.8545                39.8073

                   121                    122                    123
                     A                      A                      A
 Frequencies --  3307.2670              3310.9683              3320.0707
 Red. masses --     1.1042                 1.1030                 1.0674
 Frc consts  --     7.1160                 7.1243                 6.9323
 IR Inten    --    55.5966                73.9260               284.7279
 Raman Activ --    24.2039                47.1842               155.2483

                   124                    125                    126
                     A                      A                      A
 Frequencies --  3350.2056              3357.5160              3357.6404
 Red. masses --     1.0660                 1.0678                 1.0666
 Frc consts  --     7.0496                 7.0924                 7.0849
 IR Inten    --    28.8473                42.4396                45.9376
 Raman Activ --   129.4023               125.3409               201.1948

                   127                    128                    129
                     A                      A                      A
 Frequencies --  3373.0743              3873.0864              3877.9693
 Red. masses --     1.0663                 1.0678                 1.0674
 Frc consts  --     7.1482                 9.4375                 9.4576
 IR Inten    --    65.5203                78.2403                79.3848
 Raman Activ --   131.7571                81.7156                99.4593

 - Thermochemistry -
 -------------------
 Temperature   298.150 Kelvin.  Pressure   1.00000 Atm.
 Atom     1 has atomic number  8 and mass  15.99491

 Molecular mass:   342.11621 amu.
 Principal axes and moments of inertia in atomic units:
                           1         2         3
     Eigenvalues --  4416.32430********************
           X            0.99998   0.00704   0.00016
           Y           -0.00704   0.99997   0.00193
           Z           -0.00015  -0.00193   1.00000
 This molecule is an asymmetric top.
 Rotational symmetry number  1.
 Warning -- assumption of classical behavior for rotation
           may cause significant error
 Rotational temperatures (Kelvin)      0.01961     0.00688     0.00523
 Rotational constants (GHZ):           0.40865     0.14329     0.10891
    7 imaginary frequencies ignored.
 Zero-point vibrational energy     972419.6 (Joules/Mol)
                                  232.41386 (Kcal/Mol)
 Warning -- explicit consideration of  32 degrees of freedom as
           vibrations may cause significant error
 Vibrational temperatures:     73.76    86.18   112.38   120.63   194.81
          (Kelvin)            219.43   260.52   269.40   307.92   333.57
                              363.95   412.27   424.07   432.45   450.18
                              455.22   456.22   495.25   515.72   543.43
                              578.67   605.99   622.19   629.34   674.56
                              700.55   734.64   749.21   814.86   841.12
                              859.50   874.17   905.00   975.06  1000.96
                             1020.64  1045.73  1083.67  1153.75  1220.34
                             1228.23  1270.67  1315.04  1378.74  1395.81
                             1423.50  1428.49  1440.19  1454.58  1474.03
                             1487.10  1509.18  1531.35  1539.24  1542.26
                             1553.88  1571.50  1580.47  1603.59  1611.82
                             1612.20  1624.16  1638.63  1648.41  1663.07
                             1673.31  1691.05  1702.91  1728.78  1737.35
                             1744.15  1760.89  1786.80  1798.34  1806.57
                             1836.55  1854.04  1857.02  1861.51  1867.61
                             1878.73  1889.86  1907.80  1909.63  1914.88
                             1926.57  1947.67  1952.68  1958.56  1976.12
                             1994.34  2003.69  2005.99  2025.73  2087.82
                             2108.68  2113.49  2128.62  2162.03  2193.15
                             4625.86  4678.90  4688.51  4692.00  4700.11
                             4700.74  4707.62  4715.55  4717.07  4730.03
                             4731.89  4746.88  4752.72  4758.41  4763.74
                             4776.84  4820.19  4830.71  4830.89  4853.10
                             5572.50  5579.53

 Zero-point correction=                           0.370375 (Hartree/Particle)
 Thermal correction to Energy=                    0.388699
 Thermal correction to Enthalpy=                  0.389643
 Thermal correction to Gibbs Free Energy=         0.324911
 Sum of electronic and zero-point Energies=          -1297.648452
 Sum of electronic and thermal Energies=             -1297.630128
 Sum of electronic and thermal Enthalpies=           -1297.629184
 Sum of electronic and thermal Free Energies=        -1297.693915

                     E (Thermal)             CV                S
                      KCal/Mol        Cal/Mol-Kelvin    Cal/Mol-Kelvin
 Total                  243.912             76.023            136.239
 Electronic               0.000              0.000              0.000
 Translational            0.889              2.981             43.384
 Rotational               0.889              2.981             35.176
 Vibrational            242.135             70.061             57.678
 Vibration     1          0.596              1.977              4.768
 Vibration     2          0.597              1.973              4.461
 Vibration     3          0.599              1.964              3.938
 Vibration     4          0.601              1.960              3.799
 Vibration     5          0.613              1.918              2.868
 Vibration     6          0.619              1.900              2.641
 Vibration     7          0.630              1.865              2.317
 Vibration     8          0.632              1.857              2.255
 Vibration     9          0.644              1.820              2.009
 Vibration    10          0.653              1.792              1.865
 Vibration    11          0.664              1.758              1.710
 Vibration    12          0.684              1.699              1.494
 Vibration    13          0.689              1.684              1.447
 Vibration    14          0.693              1.673              1.414
 Vibration    15          0.701              1.649              1.347
 Vibration    16          0.703              1.642              1.329
 Vibration    17          0.704              1.641              1.325
 Vibration    18          0.723              1.587              1.193
 Vibration    19          0.733              1.558              1.129
 Vibration    20          0.748              1.518              1.048
 Vibration    21          0.768              1.465              0.955
 Vibration    22          0.784              1.424              0.888
 Vibration    23          0.793              1.400              0.851
 Vibration    24          0.798              1.389              0.835
 Vibration    25          0.826              1.319              0.741
 Vibration    26          0.843              1.279              0.692
 Vibration    27          0.866              1.227              0.632
 Vibration    28          0.876              1.204              0.608
 Vibration    29          0.922              1.104              0.511
 Vibration    30          0.942              1.065              0.477
 Vibration    31          0.955              1.037              0.454
 Vibration    32          0.966              1.016              0.437

 Normal termination of Gaussian 09 at Fri Feb  5 12:54:46 2016.
