 Gaussian 09, Revision B.01,
 Gaussian 09:  EM64L-G09RevB.01 12-Aug-2010

 -------------------------------------------------
 # freq=raman b3lyp/6-31+g(2d,p) geom=connectivity
 -------------------------------------------------

 -----------------
 423 9394/9394.com
 -----------------
 Symbolic Z-matrix:
 Charge =  0 Multiplicity = 1

                         Standard orientation:
 ---------------------------------------------------------------------
 Center     Atomic      Atomic             Coordinates (Angstroms)
 Number     Number       Type             X           Y           Z
 ---------------------------------------------------------------------
      1          8           0        5.046208   -0.363083   -0.365493
      2          6           0        3.738220   -0.071358    0.145982
      3          6           0        3.243898    1.315566   -0.231824
      4          8           0        4.112101    2.380321    0.183993
      5          1           0        5.013119    2.125031   -0.167101
      6          6           0        1.837262    1.528725    0.301285
      7          8           0        1.302447    2.766037   -0.189811
      8          1           0        0.408200    2.890043    0.241136
      9          6           0        3.166354   -2.527406    0.230836
     10          8           0        4.347615   -3.079282   -0.368110
     11          1           0        4.342419   -4.078608   -0.387120
     12          6           0        2.760738   -1.154995   -0.281091
     13          8           0        1.436690   -0.930698    0.223554
     14          6           0        0.953091    0.371579   -0.134585
     15          8           0       -0.295757    0.502227    0.559334
     16          6           0       -1.525684    0.106991   -0.064591
     17          6           0       -2.014275   -1.257636    0.392322
     18          8           0       -1.066325   -2.240514   -0.048610
     19          1           0       -0.155882   -2.115555    0.346183
     20          6           0       -3.421698   -1.531124   -0.115870
     21          8           0       -4.032570   -2.663434    0.518414
     22          1           0       -4.960273   -2.873866    0.207571
     23          6           0       -2.363657    2.596567   -0.263415
     24          8           0       -1.231073    3.248335    0.331104
     25          1           0       -1.494491    4.210312    0.401115
     26          6           0       -2.587027    1.164280    0.192564
     27          8           0       -3.807426    0.848271   -0.493742
     28          6           0       -4.341737   -0.340886    0.105160
     29          8           0       -5.516870   -0.502626   -0.702360
     30          1           0       -6.267893   -0.701187   -0.138323
     31          1           0       -3.239938    3.164823   -0.030784
     32          1           0       -2.232810    2.595613   -1.325384
     33          1           0       -2.788399    1.178926    1.243342
     34          1           0       -1.357777    0.058827   -1.120236
     35          1           0       -2.035769   -1.266994    1.462066
     36          1           0       -3.366985   -1.723524   -1.167007
     37          1           0       -4.582046   -0.197962    1.137984
     38          1           0        5.634169   -0.576930    0.362635
     39          1           0        2.355227   -3.203282    0.057156
     40          1           0        3.326900   -2.457574    1.286416
     41          1           0        2.722700   -1.182578   -1.350059
     42          1           0        3.801333   -0.103991    1.213620
     43          1           0        3.188256    1.351739   -1.299764
     44          1           0        1.869382    1.561233    1.370308
     45          1           0        0.787329    0.419237   -1.190592
 ---------------------------------------------------------------------

 SCF Done:  E(RB3LYP) =  -1298.00710968     A.U. after   13 cycles

 The electronic state is 1-A.
 Alpha  occ. eigenvalues --  -19.18331 -19.18143 -19.17686 -19.17630 -19.17255
 Alpha  occ. eigenvalues --  -19.16403 -19.16254 -19.15924 -19.15066 -19.14209
 Alpha  occ. eigenvalues --  -19.12883 -10.30419 -10.29938 -10.25375 -10.25205
 Alpha  occ. eigenvalues --  -10.25128 -10.25075 -10.24963 -10.24734 -10.24697
 Alpha  occ. eigenvalues --  -10.24166 -10.23800 -10.23756  -1.09591  -1.09096
 Alpha  occ. eigenvalues --   -1.05314  -1.04721  -1.03556  -1.03351  -1.02473
 Alpha  occ. eigenvalues --   -1.02171  -1.01729  -1.00725  -0.99590  -0.81741
 Alpha  occ. eigenvalues --   -0.80146  -0.79196  -0.77961  -0.71739  -0.69484
 Alpha  occ. eigenvalues --   -0.67210  -0.64726  -0.63028  -0.62412  -0.61308
 Alpha  occ. eigenvalues --   -0.59845  -0.56385  -0.55384  -0.54879  -0.54487
 Alpha  occ. eigenvalues --   -0.53940  -0.52993  -0.52870  -0.52305  -0.50875
 Alpha  occ. eigenvalues --   -0.50695  -0.49718  -0.49047  -0.48291  -0.46135
 Alpha  occ. eigenvalues --   -0.45629  -0.44689  -0.44519  -0.43476  -0.42990
 Alpha  occ. eigenvalues --   -0.42564  -0.41574  -0.40704  -0.39923  -0.39267
 Alpha  occ. eigenvalues --   -0.38959  -0.37943  -0.37759  -0.35676  -0.35242
 Alpha  occ. eigenvalues --   -0.35013  -0.34699  -0.34276  -0.33406  -0.33162
 Alpha  occ. eigenvalues --   -0.32240  -0.30909  -0.30705  -0.30262  -0.30049
 Alpha  occ. eigenvalues --   -0.29214  -0.28800  -0.28455  -0.27365  -0.26548
 Alpha  occ. eigenvalues --   -0.26286
 Alpha virt. eigenvalues --   -0.02116  -0.01747  -0.01554   0.00074   0.00409
 Alpha virt. eigenvalues --    0.01011   0.01865   0.02243   0.03122   0.03576
 Alpha virt. eigenvalues --    0.03802   0.04365   0.05080   0.05317   0.05550

 Mulliken atomic charges:
              1
     1  O   -0.538141
     2  C   -0.035664
     3  C    0.175752
     4  O   -0.546372
     5  H    0.339184
     6  C   -0.080395
     7  O   -0.550221
     8  H    0.412046
     9  C   -0.224695
    10  O   -0.541725
    11  H    0.344451
    12  C    0.179638
    13  O   -0.265440
    14  C    0.217738
    15  O   -0.233465
    16  C    0.352181
    17  C    0.086433
    18  O   -0.543460
    19  H    0.367344
    20  C    0.120302
    21  O   -0.558293
    22  H    0.336118
    23  C   -0.240267
    24  O   -0.547070
    25  H    0.354402
    26  C   -0.165999
    27  O   -0.226489
    28  C    0.063635
    29  O   -0.534675
    30  H    0.329878
    31  H    0.147534
    32  H    0.159855
    33  H    0.113299
    34  H    0.113820
    35  H    0.125377
    36  H    0.140248
    37  H    0.136097
    38  H    0.342418
    39  H    0.137879
    40  H    0.138893
    41  H    0.116770
    42  H    0.111441
    43  H    0.118077
    44  H    0.128410
    45  H    0.123150
 Sum of Mulliken atomic charges =   0.00000

 Dipole moment (field-independent basis, Debye):
    X=             -2.7291    Y=             -0.6741    Z=              2.3469  Tot=              3.6620
 Quadrupole moment (field-independent basis, Debye-Ang):
   XX=           -116.4432   YY=           -134.5917   ZZ=           -139.4901
   XY=            -16.9319   XZ=             -2.0456   YZ=              0.4932

  Exact polarizability: 234.788   0.820 196.711  -0.052  -0.544 144.456
 Approx polarizability: 274.893   0.036 255.831  -0.389  -0.264 240.938

 ******    7 imaginary frequencies (negative Signs) ******

                     1                      2                      3
                     A                      A                      A
 Frequencies --  -267.8208              -239.0302              -217.9879
 Red. masses --     1.3330                 1.1942                 1.8557
 Frc consts  --     0.0563                 0.0402                 0.0520
 IR Inten    --    77.9774               116.1570                 1.1684
 Raman Activ --     0.4699                 0.9993                 0.0981

                     4                      5                      6
                     A                      A                      A
 Frequencies --  -215.5169               -65.8796               -58.9807
 Red. masses --     1.5362                 6.5830                 6.4843
 Frc consts  --     0.0420                 0.0168                 0.0133
 IR Inten    --    28.6027                 0.4833                 0.5631
 Raman Activ --     0.3379                 0.0286                 0.0306

                     7                      8                      9
                     A                      A                      A
 Frequencies --   -44.4564                48.9080                77.0343
 Red. masses --     6.0544                 6.3758                 6.9400
 Frc consts  --     0.0071                 0.0090                 0.0243
 IR Inten    --     1.5166                 0.8711                 1.9735
 Raman Activ --     0.0266                 0.0410                 0.1070

                    10                     11                     12
                     A                      A                      A
 Frequencies --    85.2456                96.4680               119.0209
 Red. masses --     6.7066                 5.9663                 5.4110
 Frc consts  --     0.0287                 0.0327                 0.0452
 IR Inten    --     0.1214                 3.0238                 0.9121
 Raman Activ --     0.2310                 0.0417                 0.0687

                    13                     14                     15
                     A                      A                      A
 Frequencies --   159.9215               179.4017               194.0155
 Red. masses --     6.1153                 6.4588                 6.0856
 Frc consts  --     0.0921                 0.1225                 0.1350
 IR Inten    --     2.0783                 2.3171                 0.1600
 Raman Activ --     0.3958                 1.0643                 0.3387

                    16                     17                     18
                     A                      A                      A
 Frequencies --   213.9053               232.6399               263.5736
 Red. masses --     7.0121                 5.8988                 4.9713
 Frc consts  --     0.1890                 0.1881                 0.2035
 IR Inten    --     0.5870                 2.4255                17.3144
 Raman Activ --     2.3625                 0.4020                 0.2905

                    19                     20                     21
                     A                      A                      A
 Frequencies --   275.3414               287.6764               304.2047
 Red. masses --     4.8779                 5.5313                 4.4465
 Frc consts  --     0.2179                 0.2697                 0.2424
 IR Inten    --     0.9203                 4.2707                 1.8532
 Raman Activ --     0.1445                 0.2791                 0.4144

                    22                     23                     24
                     A                      A                      A
 Frequencies --   308.7461               321.1540               328.1022
 Red. masses --     5.7484                 6.5214                 6.0910
 Frc consts  --     0.3228                 0.3963                 0.3863
 IR Inten    --     6.5702                 2.0140                 3.5271
 Raman Activ --     0.3504                 3.8773                 1.1706

                    25                     26                     27
                     A                      A                      A
 Frequencies --   352.8895               361.8163               378.2971
 Red. masses --     6.4651                 4.7250                 5.5059
 Frc consts  --     0.4744                 0.3644                 0.4642
 IR Inten    --    12.4442                 3.1168                 0.9869
 Raman Activ --     2.6083                 0.5412                 0.6409

                    28                     29                     30
                     A                      A                      A
 Frequencies --   412.4789               423.9402               431.4411
 Red. masses --     4.0794                 6.4067                 5.9551
 Frc consts  --     0.4089                 0.6784                 0.6531
 IR Inten    --    18.2596                 0.9876                 1.4211
 Raman Activ --     2.6771                 7.0730                 4.1672

                    31                     32                     33
                     A                      A                      A
 Frequencies --   436.1716               468.9991               492.0227
 Red. masses --     4.1907                 4.2716                 5.0939
 Frc consts  --     0.4697                 0.5536                 0.7266
 IR Inten    --     3.0206                 4.2147                11.9858
 Raman Activ --     0.7233                 4.7779                 0.3497

                    34                     35                     36
                     A                      A                      A
 Frequencies --   514.7633               520.0362               566.5102
 Red. masses --     3.6396                 3.0424                 3.9630
 Frc consts  --     0.5682                 0.4848                 0.7494
 IR Inten    --    27.9636                 3.4674                 4.1050
 Raman Activ --     0.9420                 4.0478                 2.0531

                    37                     38                     39
                     A                      A                      A
 Frequencies --   577.1058               594.6161               620.0135
 Red. masses --     2.7857                 5.8240                 3.7926
 Frc consts  --     0.5466                 1.2132                 0.8590
 IR Inten    --    55.1532                 6.4951                 9.3677
 Raman Activ --     0.1764                 0.5956                 0.6282

                    40                     41                     42
                     A                      A                      A
 Frequencies --   635.5912               669.3075               692.9558
 Red. masses --     4.9159                 1.1650                 4.4644
 Frc consts  --     1.1701                 0.3075                 1.2631
 IR Inten    --    23.0196               113.5796                13.1729
 Raman Activ --     1.0494                 1.8533                 1.3923

                    43                     44                     45
                     A                      A                      A
 Frequencies --   698.4400               708.1998               710.9785
 Red. masses --     1.0477                 1.0750                 1.0789
 Frc consts  --     0.3011                 0.3177                 0.3213
 IR Inten    --    88.0459                71.6408               207.3298
 Raman Activ --     1.9040                 3.6123                 2.6682

                    46                     47                     48
                     A                      A                      A
 Frequencies --   755.2058               841.8061               852.2381
 Red. masses --     1.0829                 1.2205                 1.7329
 Frc consts  --     0.3639                 0.5096                 0.7415
 IR Inten    --    95.8717                65.7241                 4.5927
 Raman Activ --     1.7213                 1.4108                 0.3471

                    49                     50                     51
                     A                      A                      A
 Frequencies --   864.9841               926.5918               963.3926
 Red. masses --     1.4627                 5.7428                 5.6667
 Frc consts  --     0.6448                 2.9051                 3.0988
 IR Inten    --    25.0598               123.2157                50.3520
 Raman Activ --     1.0703                 3.1874                 1.0022

                    52                     53                     54
                     A                      A                      A
 Frequencies --   975.3454               979.6280               988.9440
 Red. masses --     4.7685                 7.3446                 4.7797
 Frc consts  --     2.6727                 4.1528                 2.7542
 IR Inten    --    23.9482               253.0292                64.3387
 Raman Activ --     2.9499                 0.5563                 0.4906

                    55                     56                     57
                     A                      A                      A
 Frequencies --  1001.0256              1011.2098              1019.5443
 Red. masses --     6.5602                 6.0654                 5.8824
 Frc consts  --     3.8731                 3.6542                 3.6026
 IR Inten    --   344.7842                76.5563               115.2744
 Raman Activ --     1.5690                 2.9657                 2.9253

                    58                     59                     60
                     A                      A                      A
 Frequencies --  1036.9147              1054.8496              1062.7017
 Red. masses --     5.9617                 5.2364                 4.8784
 Frc consts  --     3.7766                 3.4329                 3.2460
 IR Inten    --   252.8992                42.3015                 9.7883
 Raman Activ --     1.8693                11.6337                 2.8331

                    61                     62                     63
                     A                      A                      A
 Frequencies --  1067.5366              1069.8042              1079.0616
 Red. masses --     5.6334                 3.6233                 5.0155
 Frc consts  --     3.7826                 2.4432                 3.4408
 IR Inten    --   242.4729                 5.1338                12.7314
 Raman Activ --     1.4647                24.4195                 8.8539

                    64                     65                     66
                     A                      A                      A
 Frequencies --  1099.5544              1100.4179              1106.6143
 Red. masses --     2.5156                 2.6940                 2.4397
 Frc consts  --     1.7920                 1.9220                 1.7603
 IR Inten    --    65.5765                38.5576                 3.6688
 Raman Activ --     4.3217                 3.0820                10.7705

                    67                     68                     69
                     A                      A                      A
 Frequencies --  1111.2176              1112.9069              1134.8911
 Red. masses --     3.9376                 2.3156                 2.5898
 Frc consts  --     2.8647                 1.6898                 1.9653
 IR Inten    --    15.4164                99.4582                22.3786
 Raman Activ --     1.6658                 4.4603                 4.2675

                    70                     71                     72
                     A                      A                      A
 Frequencies --  1140.0028              1150.6986              1155.1670
 Red. masses --     2.7530                 2.2816                 1.4213
 Frc consts  --     2.1080                 1.7800                 1.1174
 IR Inten    --     2.9346                11.4001                 7.1506
 Raman Activ --     4.7282                 3.7806                 2.0157

                    73                     74                     75
                     A                      A                      A
 Frequencies --  1160.5795              1168.9584              1182.8226
 Red. masses --     1.7273                 1.6648                 1.6556
 Frc consts  --     1.3708                 1.3403                 1.3647
 IR Inten    --    17.4832                 3.4048                11.8598
 Raman Activ --     4.6774                 2.5122                 3.0254

                    76                     77                     78
                     A                      A                      A
 Frequencies --  1199.2460              1202.1111              1223.3826
 Red. masses --     1.3853                 1.3071                 1.2915
 Frc consts  --     1.1738                 1.1129                 1.1389
 IR Inten    --    16.6790                17.2277                 9.3425
 Raman Activ --     3.1630                 2.3571                 0.8266

                    79                     80                     81
                     A                      A                      A
 Frequencies --  1229.7353              1237.9303              1245.7600
 Red. masses --     1.2547                 1.2179                 1.2290
 Frc consts  --     1.1179                 1.0997                 1.1237
 IR Inten    --     5.3686                 6.9098                15.6689
 Raman Activ --     0.5054                 1.2488                 1.0144

                    82                     83                     84
                     A                      A                      A
 Frequencies --  1266.9305              1272.3257              1280.9903
 Red. masses --     1.1593                 1.3724                 1.3076
 Frc consts  --     1.0963                 1.3090                 1.2642
 IR Inten    --     4.1813                21.7953                 1.0132
 Raman Activ --     3.1526                 3.6239                 0.9610

                    85                     86                     87
                     A                      A                      A
 Frequencies --  1283.0123              1290.9636              1298.4579
 Red. masses --     1.2769                 1.2797                 1.2511
 Frc consts  --     1.2384                 1.2566                 1.2428
 IR Inten    --    24.1175                36.8002                22.8068
 Raman Activ --     1.0746                 1.6133                 6.3340

                    88                     89                     90
                     A                      A                      A
 Frequencies --  1302.4728              1312.1038              1320.6035
 Red. masses --     1.2758                 1.2551                 1.3592
 Frc consts  --     1.2752                 1.2731                 1.3966
 IR Inten    --    18.9469                 4.3139                21.0976
 Raman Activ --     5.1036                14.5082                 3.6811

                    91                     92                     93
                     A                      A                      A
 Frequencies --  1325.9738              1329.6001              1345.2493
 Red. masses --     1.2505                 1.3171                 1.2511
 Frc consts  --     1.2954                 1.3718                 1.3340
 IR Inten    --    80.8167                 7.1032                16.0455
 Raman Activ --     4.4420                 0.5869                 1.5682

                    94                     95                     96
                     A                      A                      A
 Frequencies --  1353.1671              1358.4734              1364.8742
 Red. masses --     1.2835                 1.3442                 1.4797
 Frc consts  --     1.3846                 1.4615                 1.6241
 IR Inten    --    28.6694                 9.5958                21.1484
 Raman Activ --     1.1721                 3.7315                 8.0760

                    97                     98                     99
                     A                      A                      A
 Frequencies --  1371.2513              1387.9309              1391.8848
 Red. masses --     1.6822                 1.4625                 1.6421
 Frc consts  --     1.8636                 1.6599                 1.8744
 IR Inten    --    16.5704                 6.7950                30.9052
 Raman Activ --    11.7379                 3.8395                 1.1013

                   100                    101                    102
                     A                      A                      A
 Frequencies --  1392.3784              1436.7412              1443.5004
 Red. masses --     1.3616                 1.4255                 1.3673
 Frc consts  --     1.5553                 1.7337                 1.6786
 IR Inten    --     0.5988                28.2671                21.2688
 Raman Activ --     6.4651                 1.9198                 1.6695

                   103                    104                    105
                     A                      A                      A
 Frequencies --  1453.8871              1471.1660              1471.8256
 Red. masses --     1.3310                 1.0748                 1.0889
 Frc consts  --     1.6577                 1.3706                 1.3898
 IR Inten    --    36.6962                 3.9908                 2.5436
 Raman Activ --     2.1481                 5.0413                 3.6893

                   106                    107                    108
                     A                      A                      A
 Frequencies --  1481.8906              1503.1456              3256.5679
 Red. masses --     1.3834                 1.2664                 1.0573
 Frc consts  --     1.7899                 1.6859                 6.6063
 IR Inten    --    36.5408                46.3648                26.8952
 Raman Activ --     0.8763                 0.8955                74.1995

                   109                    110                    111
                     A                      A                      A
 Frequencies --  3260.9483              3266.6929              3267.5743
 Red. masses --     1.0612                 1.0805                 1.0813
 Frc consts  --     6.6484                 6.7933                 6.8020
 IR Inten    --   303.3982                 7.1975                32.2203
 Raman Activ --    19.1323               222.2189                 8.2838

                   112                    113                    114
                     A                      A                      A
 Frequencies --  3271.8677              3275.0879              3276.5085
 Red. masses --     1.0764                 1.0728                 1.0819
 Frc consts  --     6.7893                 6.7797                 6.8429
 IR Inten    --   106.1608               365.2914                 0.2213
 Raman Activ --    72.9173               158.3626                94.6131

                   115                    116                    117
                     A                      A                      A
 Frequencies --  3284.1743              3286.3021              3288.0114
 Red. masses --     1.0827                 1.0860                 1.0843
 Frc consts  --     6.8803                 6.9103                 6.9063
 IR Inten    --    25.9867                11.6764                 9.9295
 Raman Activ --   119.6010                 9.4261                51.6032

                   118                    119                    120
                     A                      A                      A
 Frequencies --  3290.0764              3299.6812              3304.6292
 Red. masses --     1.0860                 1.0868                 1.0868
 Frc consts  --     6.9261                 6.9715                 6.9926
 IR Inten    --     1.3336                79.5345                70.2566
 Raman Activ --    65.4021                 8.9191                 5.6109

                   121                    122                    123
                     A                      A                      A
 Frequencies --  3314.8812              3324.0023              3341.1929
 Red. masses --     1.1061                 1.1076                 1.0673
 Frc consts  --     7.1613                 7.2107                 7.0202
 IR Inten    --    53.9084                49.2304               386.4596
 Raman Activ --    31.7739                33.3629               156.7906

                   124                    125                    126
                     A                      A                      A
 Frequencies --  3359.0889              3367.5605              3372.9944
 Red. masses --     1.0667                 1.0652                 1.0687
 Frc consts  --     7.0915                 7.1173                 7.1635
 IR Inten    --    38.5132                31.6296                41.5179
 Raman Activ --   171.2747               105.7259               187.2434

                   127                    128                    129
                     A                      A                      A
 Frequencies --  3374.8465              3889.2591              3890.6139
 Red. masses --     1.0679                 1.0677                 1.0673
 Frc consts  --     7.1660                 9.5153                 9.5183
 IR Inten    --    45.9451                80.6892                55.1786
 Raman Activ --   154.9066                76.8377               123.0833

 - Thermochemistry -
 -------------------
 Temperature   298.150 Kelvin.  Pressure   1.00000 Atm.
 Atom     1 has atomic number  8 and mass  15.99491

 Molecular mass:   342.11621 amu.
 Principal axes and moments of inertia in atomic units:
                           1         2         3
     Eigenvalues --  4337.62646********************
           X            0.99997  -0.00787  -0.00043
           Y            0.00787   0.99997  -0.00182
           Z            0.00044   0.00181   1.00000
 This molecule is an asymmetric top.
 Rotational symmetry number  1.
 Warning -- assumption of classical behavior for rotation
           may cause significant error
 Rotational temperatures (Kelvin)      0.01997     0.00688     0.00524
 Rotational constants (GHZ):           0.41607     0.14334     0.10922
    7 imaginary frequencies ignored.
 Zero-point vibrational energy     972851.5 (Joules/Mol)
                                  232.51710 (Kcal/Mol)
 Warning -- explicit consideration of  32 degrees of freedom as
           vibrations may cause significant error
 Vibrational temperatures:     70.37   110.84   122.65   138.80   171.24
          (Kelvin)            230.09   258.12   279.14   307.76   334.72
                              379.22   396.15   413.90   437.68   444.22
                              462.07   472.07   507.73   520.57   544.28
                              593.46   609.95   620.75   627.55   674.78
                              707.91   740.63   748.22   815.08   830.33
                              855.52   892.06   914.47   962.98   997.01
                             1004.90  1018.94  1022.94  1086.57  1211.17
                             1226.18  1244.52  1333.16  1386.11  1403.30
                             1409.46  1422.87  1440.25  1454.90  1466.90
                             1491.89  1517.69  1528.99  1535.95  1539.21
                             1552.53  1582.01  1583.25  1592.17  1598.79
                             1601.22  1632.85  1640.21  1655.60  1662.03
                             1669.81  1681.87  1701.82  1725.45  1729.57
                             1760.17  1769.31  1781.10  1792.37  1822.83
                             1830.59  1843.06  1845.97  1857.41  1868.19
                             1873.97  1887.82  1900.05  1907.78  1913.00
                             1935.51  1946.90  1954.54  1963.75  1972.92
                             1996.92  2002.61  2003.32  2067.15  2076.87
                             2091.82  2116.68  2117.63  2132.11  2162.69
                             4685.47  4691.77  4700.04  4701.30  4707.48
                             4712.12  4714.16  4725.19  4728.25  4730.71
                             4733.68  4747.50  4754.62  4769.37  4782.49
                             4807.23  4832.97  4845.16  4852.98  4855.65
                             5595.77  5597.72

 Zero-point correction=                           0.370540 (Hartree/Particle)
 Thermal correction to Energy=                    0.388811
 Thermal correction to Enthalpy=                  0.389755
 Thermal correction to Gibbs Free Energy=         0.325396
 Sum of electronic and zero-point Energies=          -1297.636570
 Sum of electronic and thermal Energies=             -1297.618299
 Sum of electronic and thermal Enthalpies=           -1297.617354
 Sum of electronic and thermal Free Energies=        -1297.681713

                     E (Thermal)             CV                S
                      KCal/Mol        Cal/Mol-Kelvin    Cal/Mol-Kelvin
 Total                  243.983             76.187            135.455
 Electronic               0.000              0.000              0.000
 Translational            0.889              2.981             43.384
 Rotational               0.889              2.981             35.155
 Vibrational            242.205             70.225             56.916
 Vibration     1          0.595              1.978              4.861
 Vibration     2          0.599              1.964              3.965
 Vibration     3          0.601              1.959              3.766
 Vibration     4          0.603              1.952              3.524
 Vibration     5          0.609              1.933              3.116
 Vibration     6          0.622              1.891              2.551
 Vibration     7          0.629              1.868              2.335
 Vibration     8          0.635              1.848              2.189
 Vibration     9          0.644              1.820              2.010
 Vibration    10          0.653              1.791              1.858
 Vibration    11          0.670              1.740              1.638
 Vibration    12          0.677              1.719              1.562
 Vibration    13          0.685              1.697              1.488
 Vibration    14          0.695              1.666              1.394
 Vibration    15          0.698              1.657              1.369
 Vibration    16          0.707              1.633              1.304
 Vibration    17          0.711              1.619              1.269
 Vibration    18          0.729              1.569              1.153
 Vibration    19          0.736              1.551              1.114
 Vibration    20          0.749              1.516              1.046
 Vibration    21          0.776              1.443              0.918
 Vibration    22          0.786              1.418              0.879
 Vibration    23          0.792              1.402              0.854
 Vibration    24          0.797              1.391              0.839
 Vibration    25          0.826              1.319              0.740
 Vibration    26          0.848              1.268              0.678
 Vibration    27          0.870              1.217              0.622
 Vibration    28          0.875              1.206              0.610
 Vibration    29          0.922              1.104              0.511
 Vibration    30          0.934              1.081              0.491
 Vibration    31          0.952              1.043              0.459
 Vibration    32          0.980              0.990              0.416

 Normal termination of Gaussian 09 at Mon Mar 28 08:22:19 2016.
