 Gaussian 09, Revision B.01,
 Gaussian 09:  EM64L-G09RevB.01 12-Aug-2010

 ------------------------------------------------
 # freq=raman b3lyp/6-31+g(d,p) geom=connectivity
 ------------------------------------------------

 ------------
 500 7000.com
 ------------
 Symbolic Z-matrix:
 Charge =  0 Multiplicity = 1

                         Standard orientation:
 ---------------------------------------------------------------------
 Center     Atomic      Atomic             Coordinates (Angstroms)
 Number     Number       Type             X           Y           Z
 ---------------------------------------------------------------------
      1          8           0        5.007780   -0.595607   -0.533539
      2          6           0        3.809002   -0.162741    0.124820
      3          6           0        3.441380    1.209404   -0.414424
      4          8           0        4.448376    2.228872   -0.329018
      5          1           0        5.204612    1.816642   -0.836562
      6          6           0        2.081261    1.638228    0.110898
      7          8           0        1.534511    2.804853   -0.521000
      8          1           0        2.326537    3.339179   -0.817960
      9          6           0        2.891725   -2.468197    0.698594
     10          8           0        1.896242   -3.500170    0.635213
     11          1           0        2.282053   -4.399400    0.842297
     12          6           0        2.803120   -1.252297   -0.208950
     13          8           0        1.540671   -0.733271    0.235216
     14          6           0        1.036972    0.560312   -0.127675
     15          8           0       -0.114944    0.793205    0.696537
     16          6           0       -1.295511    0.242589    0.095490
     17          6           0       -1.751678   -1.179541    0.382051
     18          8           0       -0.780721   -2.118127   -0.104231
     19          1           0        0.127059   -2.010536    0.299069
     20          6           0       -3.027292   -1.438220   -0.401165
     21          8           0       -3.340066   -2.717626   -0.972219
     22          1           0       -2.448472   -3.091220   -1.226877
     23          6           0       -2.179757    2.596081    0.206083
     24          8           0       -2.970445    3.755440    0.505822
     25          1           0       -2.454113    4.606668    0.419420
     26          6           0       -2.478917    1.126774    0.454895
     27          8           0       -3.710885    0.720865   -0.158764
     28          6           0       -4.125331   -0.597423    0.229372
     29          8           0       -5.319417   -0.762502   -0.549719
     30          1           0       -6.087833   -0.638177    0.012136
     31          1           0       -4.249259   -0.730919    1.283754
     32          1           0       -2.830462   -0.883839   -1.294932
     33          1           0       -1.918505   -1.318503    1.429791
     34          1           0       -1.159887    0.313308   -0.963521
     35          1           0       -2.621221    1.022957    1.510296
     36          1           0       -1.238868    2.795807   -0.262677
     37          1           0       -3.120647    2.396355    0.674844
     38          1           0        5.722359   -0.648809    0.105325
     39          1           0        2.906277   -2.107596    1.705895
     40          1           0        3.837275   -2.932237    0.510173
     41          1           0        2.794319   -1.509621   -1.247510
     42          1           0        3.965626   -0.115408    1.182236
     43          1           0        3.296959    1.060341   -1.464102
     44          1           0        2.158801    1.818761    1.162704
     45          1           0        0.748724    0.558988   -1.158117
 ---------------------------------------------------------------------

 SCF Done:  E(RB3LYP) =  -1297.62543322     A.U. after   22 cycles

 The electronic state is 1-A.
 Alpha  occ. eigenvalues --  -19.20370 -19.20327 -19.19322 -19.19018 -19.18716
 Alpha  occ. eigenvalues --  -19.18583 -19.18132 -19.15888 -19.15682 -19.14763
 Alpha  occ. eigenvalues --  -19.14611 -10.31450 -10.29305 -10.28457 -10.28260
 Alpha  occ. eigenvalues --  -10.27842 -10.27547 -10.26596 -10.26155 -10.26116
 Alpha  occ. eigenvalues --  -10.24789 -10.22862 -10.18568  -1.10124  -1.08159
 Alpha  occ. eigenvalues --   -1.07622  -1.06026  -1.05265  -1.04794  -1.03712
 Alpha  occ. eigenvalues --   -1.03462  -1.01850  -1.00636  -0.99314  -0.83143
 Alpha  occ. eigenvalues --   -0.82406  -0.80581  -0.79610  -0.72930  -0.71109
 Alpha  occ. eigenvalues --   -0.67992  -0.65163  -0.64560  -0.62716  -0.61379
 Alpha  occ. eigenvalues --   -0.60833  -0.57409  -0.56974  -0.55848  -0.55196
 Alpha  occ. eigenvalues --   -0.53874  -0.53696  -0.53266  -0.52724  -0.51960
 Alpha  occ. eigenvalues --   -0.51578  -0.49578  -0.48871  -0.48345  -0.47276
 Alpha  occ. eigenvalues --   -0.46309  -0.45709  -0.45267  -0.44415  -0.43721
 Alpha  occ. eigenvalues --   -0.43191  -0.41383  -0.40360  -0.39936  -0.39405
 Alpha  occ. eigenvalues --   -0.38367  -0.37737  -0.37191  -0.36578  -0.35961
 Alpha  occ. eigenvalues --   -0.35531  -0.35467  -0.35070  -0.33961  -0.33711
 Alpha  occ. eigenvalues --   -0.33026  -0.31527  -0.31354  -0.30755  -0.30377
 Alpha  occ. eigenvalues --   -0.29679  -0.29160  -0.28141  -0.27114  -0.24910
 Alpha  occ. eigenvalues --   -0.13102
 Alpha virt. eigenvalues --   -0.05022  -0.03643  -0.02512  -0.01173   0.00248
 Alpha virt. eigenvalues --    0.00647   0.01324   0.01989   0.02503   0.02768
 Alpha virt. eigenvalues --    0.03431   0.04056   0.04203   0.04780   0.05696

 Mulliken atomic charges:
              1
     1  O   -0.564724
     2  C   -0.004356
     3  C   -0.127519
     4  O   -0.495056
     5  H    0.367151
     6  C   -0.118279
     7  O   -0.506520
     8  H    0.368910
     9  C   -0.248140
    10  O   -0.581676
    11  H    0.384573
    12  C    0.291383
    13  O   -0.450025
    14  C    0.590339
    15  O   -0.234777
    16  C   -0.175075
    17  C    0.020146
    18  O   -0.547961
    19  H    0.441577
    20  C   -0.386854
    21  O   -0.468665
    22  H    0.368979
    23  C   -0.522581
    24  O   -0.438469
    25  H    0.349911
    26  C   -0.063152
    27  O   -0.261438
    28  C    0.659339
    29  O   -0.501825
    30  H    0.338887
    31  H    0.122875
    32  H    0.146152
    33  H    0.133030
    34  H    0.136542
    35  H    0.146198
    36  H    0.161660
    37  H    0.333429
    38  H    0.365455
    39  H    0.144746
    40  H    0.130266
    41  H    0.150273
    42  H    0.135770
    43  H    0.139676
    44  H    0.153165
    45  H    0.116661
 Sum of Mulliken atomic charges =   0.00000

 Dipole moment (field-independent basis, Debye):
    X=              9.3455    Y=             -0.7235    Z=              3.3187  Tot=              9.9436
 Quadrupole moment (field-independent basis, Debye-Ang):
   XX=           -121.0684   YY=           -136.9143   ZZ=           -138.7684
   XY=            -12.3389   XZ=            -12.3604   YZ=             -7.5174

  Exact polarizability: 232.229   0.007 236.200  -5.701  -1.465 151.330
 Approx polarizability: 278.155   0.996 312.796  -7.830   0.438 245.410

 ******   12 imaginary frequencies (negative Signs) ******

                     1                      2                      3
                     A                      A                      A
 Frequencies -- -2344.2434             -1044.6118              -695.0398
 Red. masses --     1.0901                 1.2172                 1.2111
 Frc consts  --     3.5294                 0.7826                 0.3447
 IR Inten    --   112.6229               525.6506                31.0814
 Raman Activ --   348.5099               632.6729                17.8023

                     4                      5                      6
                     A                      A                      A
 Frequencies --  -502.6817              -352.7298              -270.0456
 Red. masses --     5.9632                 1.0918                 1.7957
 Frc consts  --     0.8878                 0.0800                 0.0772
 IR Inten    --    78.3746               100.7033                 5.0024
 Raman Activ --    53.2235                 2.7513                 0.0716

                     7                      8                      9
                     A                      A                      A
 Frequencies --  -218.6125              -178.6825               -87.3815
 Red. masses --     2.6472                 1.2714                 5.6658
 Frc consts  --     0.0745                 0.0239                 0.0255
 IR Inten    --    94.3557               106.5416                 0.8497
 Raman Activ --    43.3455                 0.9042                 0.3824

                    10                     11                     12
                     A                      A                      A
 Frequencies --   -81.8990               -62.1470               -36.6147
 Red. masses --     6.1939                 5.2980                 6.5093
 Frc consts  --     0.0245                 0.0121                 0.0051
 IR Inten    --     1.5704                 2.1163                 2.4190
 Raman Activ --     0.7517                 2.4913                 0.6223

                    13                     14                     15
                     A                      A                      A
 Frequencies --    30.7377                81.4944                92.7144
 Red. masses --     4.4370                 5.6170                 5.9175
 Frc consts  --     0.0025                 0.0220                 0.0300
 IR Inten    --    10.5694                 6.7038                 2.4342
 Raman Activ --     7.0503                 6.6297                 1.7201

                    16                     17                     18
                     A                      A                      A
 Frequencies --    99.2570               139.7980               159.6399
 Red. masses --     5.4658                 4.9704                 3.9068
 Frc consts  --     0.0317                 0.0572                 0.0587
 IR Inten    --     2.6801                16.8285                12.3555
 Raman Activ --     0.8417                 1.1148                11.4397

                    19                     20                     21
                     A                      A                      A
 Frequencies --   172.0026               187.0753               206.3250
 Red. masses --     6.4620                 5.4026                 5.6859
 Frc consts  --     0.1126                 0.1114                 0.1426
 IR Inten    --     4.8377                 1.4546                 1.4747
 Raman Activ --     2.4273                 0.9564                 2.3796

                    22                     23                     24
                     A                      A                      A
 Frequencies --   244.9019               255.0633               268.4001
 Red. masses --     4.7038                 4.3606                 5.8654
 Frc consts  --     0.1662                 0.1671                 0.2490
 IR Inten    --     8.1927                 2.7657                 5.8598
 Raman Activ --     0.9933                 0.2935                 0.3833

                    25                     26                     27
                     A                      A                      A
 Frequencies --   275.3512               293.4111               310.9169
 Red. masses --     5.1781                 3.2843                 4.2687
 Frc consts  --     0.2313                 0.1666                 0.2431
 IR Inten    --     8.3828                13.5321                 4.4552
 Raman Activ --     1.7635                14.6105                 2.4270

                    28                     29                     30
                     A                      A                      A
 Frequencies --   321.5937               328.7417               363.6965
 Red. masses --     5.2442                 5.9219                 3.9780
 Frc consts  --     0.3196                 0.3771                 0.3100
 IR Inten    --     3.2727                 5.5759                 2.7318
 Raman Activ --    12.5350                 6.5545                 5.4902

                    31                     32                     33
                     A                      A                      A
 Frequencies --   384.3009               400.3446               412.9010
 Red. masses --     5.1268                 7.1371                 4.5169
 Frc consts  --     0.4461                 0.6740                 0.4537
 IR Inten    --    10.0082                 3.3899                 0.9301
 Raman Activ --     2.5169                 7.7120                 4.3492

                    34                     35                     36
                     A                      A                      A
 Frequencies --   429.1153               448.7753               479.2470
 Red. masses --     5.4512                 6.0916                 5.0845
 Frc consts  --     0.5914                 0.7228                 0.6880
 IR Inten    --     5.0230                 3.4707                 7.6047
 Raman Activ --     6.6618                 3.2812                 0.6222

                    37                     38                     39
                     A                      A                      A
 Frequencies --   492.1390               535.4986               562.2025
 Red. masses --     4.3666                 3.5388                 4.4129
 Frc consts  --     0.6231                 0.5979                 0.8218
 IR Inten    --    14.8397                 8.6963                50.2257
 Raman Activ --     0.2764                 4.7031                 3.6738

                    40                     41                     42
                     A                      A                      A
 Frequencies --   571.7213               577.9662               599.9570
 Red. masses --     3.4271                 3.8362                 2.6033
 Frc consts  --     0.6600                 0.7550                 0.5521
 IR Inten    --    33.3426                 8.6165                23.8698
 Raman Activ --     0.7868                11.1476                13.8911

                    43                     44                     45
                     A                      A                      A
 Frequencies --   625.7317               628.9923               639.4148
 Red. masses --     3.8879                 1.7272                 2.0532
 Frc consts  --     0.8969                 0.4026                 0.4946
 IR Inten    --    20.3769                95.4118                62.6380
 Raman Activ --    10.2232                 5.8720                 0.8274

                    46                     47                     48
                     A                      A                      A
 Frequencies --   663.3753               678.2242               698.1552
 Red. masses --     3.2430                 1.3006                 1.0970
 Frc consts  --     0.8409                 0.3525                 0.3150
 IR Inten    --    12.2749               165.2588                76.6556
 Raman Activ --     4.5192                 7.8687                 1.0471

                    49                     50                     51
                     A                      A                      A
 Frequencies --   712.0676               764.3257               819.9972
 Red. masses --     1.1004                 1.1080                 4.2172
 Frc consts  --     0.3287                 0.3814                 1.6707
 IR Inten    --    87.9602               106.2402               150.2176
 Raman Activ --     1.2997                 2.3528                95.9352

                    52                     53                     54
                     A                      A                      A
 Frequencies --   857.0722               929.7828               942.7571
 Red. masses --     2.5880                 5.0063                 5.5443
 Frc consts  --     1.1201                 2.5499                 2.9033
 IR Inten    --     6.3024                17.8301               212.9369
 Raman Activ --     2.3019                 2.8596                40.8769

                    55                     56                     57
                     A                      A                      A
 Frequencies --   954.3490               972.4830               984.9932
 Red. masses --     5.8400                 4.9400                 6.5216
 Frc consts  --     3.1339                 2.7526                 3.7280
 IR Inten    --     7.3599                81.0384               238.4473
 Raman Activ --    80.2687                 3.8602                 5.8878

                    58                     59                     60
                     A                      A                      A
 Frequencies --   996.2740              1008.5182              1014.4821
 Red. masses --     5.7767                 4.6923                 4.7697
 Frc consts  --     3.3782                 2.8119                 2.8922
 IR Inten    --    31.1071               144.9313               255.6171
 Raman Activ --    86.8513                11.1729                 2.5416

                    61                     62                     63
                     A                      A                      A
 Frequencies --  1038.1272              1053.3927              1062.6377
 Red. masses --     2.8741                 2.2505                 3.6721
 Frc consts  --     1.8250                 1.4713                 2.4431
 IR Inten    --   107.1252                83.0428                62.3615
 Raman Activ --     5.2151                 3.8761                45.6480

                    64                     65                     66
                     A                      A                      A
 Frequencies --  1070.3220              1073.5142              1084.5456
 Red. masses --     2.4495                 5.5928                 3.1289
 Frc consts  --     1.6533                 3.7975                 2.1684
 IR Inten    --     3.1438                43.1018                82.9578
 Raman Activ --    65.1992                70.6669                14.1600

                    67                     68                     69
                     A                      A                      A
 Frequencies --  1090.4007              1108.9247              1117.9431
 Red. masses --     4.2915                 1.5526                 2.4754
 Frc consts  --     3.0063                 1.1249                 1.8228
 IR Inten    --   123.0132               106.9599                19.1248
 Raman Activ --     5.0411                50.4833                69.9608

                    70                     71                     72
                     A                      A                      A
 Frequencies --  1127.7683              1129.4621              1134.5280
 Red. masses --     2.0747                 2.1333                 1.9558
 Frc consts  --     1.5547                 1.6034                 1.4832
 IR Inten    --    14.9404                36.6947               129.5644
 Raman Activ --    46.7143               204.8918                11.3122

                    73                     74                     75
                     A                      A                      A
 Frequencies --  1142.3161              1150.9200              1163.5155
 Red. masses --     2.5800                 3.2826                 1.9182
 Frc consts  --     1.9836                 2.5619                 1.5300
 IR Inten    --    70.1113                20.7643                44.9299
 Raman Activ --   217.1204                 2.6925                 3.3749

                    76                     77                     78
                     A                      A                      A
 Frequencies --  1166.0420              1174.0786              1184.5236
 Red. masses --     1.9303                 1.4850                 1.9173
 Frc consts  --     1.5464                 1.2061                 1.5850
 IR Inten    --    38.7436                14.2847                24.3109
 Raman Activ --   156.8453               110.5918                23.2736

                    79                     80                     81
                     A                      A                      A
 Frequencies --  1194.7420              1200.3182              1225.5259
 Red. masses --     1.5473                 1.4902                 1.2530
 Frc consts  --     1.3013                 1.2650                 1.1088
 IR Inten    --     4.1630                30.3704                18.3565
 Raman Activ --     1.1950                 9.4547                 3.8288

                    82                     83                     84
                     A                      A                      A
 Frequencies --  1231.7802              1239.2224              1244.2704
 Red. masses --     1.4613                 1.3660                 1.3056
 Frc consts  --     1.3064                 1.2360                 1.1909
 IR Inten    --    11.8462                17.2001                 9.9052
 Raman Activ --    10.8254                 2.3167                 6.1194

                    85                     86                     87
                     A                      A                      A
 Frequencies --  1256.1526              1269.4767              1287.6456
 Red. masses --     1.2287                 1.1972                 1.2359
 Frc consts  --     1.1423                 1.1368                 1.2074
 IR Inten    --    30.9658                 6.7734                 9.3038
 Raman Activ --    18.4956                 3.7815                 5.7018

                    88                     89                     90
                     A                      A                      A
 Frequencies --  1294.1943              1299.3655              1309.2580
 Red. masses --     1.2546                 1.4644                 1.2717
 Frc consts  --     1.2381                 1.4567                 1.2844
 IR Inten    --     3.8255                14.0215                 2.7780
 Raman Activ --    21.0737                10.1717                 2.8737

                    91                     92                     93
                     A                      A                      A
 Frequencies --  1324.2681              1331.8919              1335.7422
 Red. masses --     1.1703                 1.4722                 1.3871
 Frc consts  --     1.2092                 1.5387                 1.4581
 IR Inten    --    22.1379                40.3691                15.3976
 Raman Activ --     9.1702                 9.2899                 3.9238

                    94                     95                     96
                     A                      A                      A
 Frequencies --  1351.2256              1351.8274              1356.9494
 Red. masses --     1.1885                 1.1703                 1.4596
 Frc consts  --     1.2785                 1.2600                 1.5834
 IR Inten    --    27.6094                59.2284                14.0108
 Raman Activ --     6.4621                 4.5711                 2.8999

                    97                     98                     99
                     A                      A                      A
 Frequencies --  1367.6937              1391.1987              1396.2969
 Red. masses --     1.5112                 1.2265                 1.5936
 Frc consts  --     1.6656                 1.3986                 1.8306
 IR Inten    --     3.1876                31.4789               108.5919
 Raman Activ --     8.9400                 3.0198                14.8505

                   100                    101                    102
                     A                      A                      A
 Frequencies --  1406.9079              1433.7654              1437.0084
 Red. masses --     1.3974                 1.2107                 1.3950
 Frc consts  --     1.6297                 1.4663                 1.6973
 IR Inten    --    10.0999                24.7989                11.8301
 Raman Activ --    11.6011                10.6346                 1.8479

                   103                    104                    105
                     A                      A                      A
 Frequencies --  1461.0063              1464.7410              1465.2754
 Red. masses --     1.5110                 1.2550                 1.2849
 Frc consts  --     1.9003                 1.5864                 1.6254
 IR Inten    --    31.7498                10.5695                41.2486
 Raman Activ --     2.9183                 8.2123                 2.1154

                   106                    107                    108
                     A                      A                      A
 Frequencies --  1467.4129              1528.5569              2938.0099
 Red. masses --     1.3788                 1.0861                 1.0359
 Frc consts  --     1.7492                 1.4951                 5.2684
 IR Inten    --    65.5798                 2.9390                45.0418
 Raman Activ --     2.9919                 4.5814              1835.0734

                   109                    110                    111
                     A                      A                      A
 Frequencies --  3217.6994              3242.7173              3254.8899
 Red. masses --     1.0747                 1.0677                 1.0821
 Frc consts  --     6.5556                 6.6145                 6.7545
 IR Inten    --    85.0535                85.4304                11.1259
 Raman Activ --   721.7552              3656.1625                65.0080

                   112                    113                    114
                     A                      A                      A
 Frequencies --  3269.5381              3271.3070              3285.3760
 Red. masses --     1.0619                 1.0787                 1.0830
 Frc consts  --     6.6879                 6.8012                 6.8871
 IR Inten    --    53.0841                 6.1271                13.4351
 Raman Activ --    45.7883               125.2365                45.2906

                   115                    116                    117
                     A                      A                      A
 Frequencies --  3296.6008              3301.1572              3305.4235
 Red. masses --     1.0857                 1.0851                 1.0853
 Frc consts  --     6.9518                 6.9672                 6.9863
 IR Inten    --     6.7415                 6.2307                 3.4369
 Raman Activ --    26.4003                11.6940               108.1152

                   118                    119                    120
                     A                      A                      A
 Frequencies --  3311.5108              3312.7981              3313.8341
 Red. masses --     1.0875                 1.0876                 1.0946
 Frc consts  --     7.0261                 7.0327                 7.0820
 IR Inten    --    14.7759                67.6231                42.2454
 Raman Activ --    40.7098                87.6649                18.4437

                   121                    122                    123
                     A                      A                      A
 Frequencies --  3328.4548              3378.4353              3386.4271
 Red. masses --     1.0949                 1.0670                 1.0663
 Frc consts  --     7.1467                 7.1752                 7.2047
 IR Inten    --    66.6046               489.9808                39.7399
 Raman Activ --    25.5385               259.9277                97.6604

                   124                    125                    126
                     A                      A                      A
 Frequencies --  3393.6509              3398.5466              3399.2773
 Red. masses --     1.0690                 1.0651                 1.0650
 Frc consts  --     7.2537                 7.2484                 7.2506
 IR Inten    --    61.7689                48.8231                32.0864
 Raman Activ --   208.1121                93.7160                60.0299

                   127                    128                    129
                     A                      A                      A
 Frequencies --  3403.5060              3916.5902              3918.0292
 Red. masses --     1.1502                 1.0676                 1.0674
 Frc consts  --     7.8504                 9.6490                 9.6544
 IR Inten    --    26.6298                63.9154                46.3270
 Raman Activ --    78.9914               109.6903               203.4980

 - Thermochemistry -
 -------------------
 Temperature   298.150 Kelvin.  Pressure   1.00000 Atm.
 Atom     1 has atomic number  8 and mass  15.99491

 Molecular mass:   342.11621 amu.
 Principal axes and moments of inertia in atomic units:
                           1         2         3
     Eigenvalues --  4806.16594********************
           X            0.99996  -0.00869  -0.00190
           Y            0.00868   0.99995  -0.00499
           Z            0.00194   0.00497   0.99999
 This molecule is an asymmetric top.
 Rotational symmetry number  1.
 Warning -- assumption of classical behavior for rotation
           may cause significant error
 Rotational temperatures (Kelvin)      0.01802     0.00745     0.00549
 Rotational constants (GHZ):           0.37551     0.15526     0.11436
   12 imaginary frequencies ignored.
 Zero-point vibrational energy     941800.5 (Joules/Mol)
                                  225.09572 (Kcal/Mol)
 Warning -- explicit consideration of  30 degrees of freedom as
           vibrations may cause significant error
 Vibrational temperatures:     44.22   117.25   133.40   142.81   201.14
          (Kelvin)            229.69   247.47   269.16   296.86   352.36
                              366.98   386.17   396.17   422.15   447.34
                              462.70   472.99   523.28   552.92   576.01
                              594.07   617.40   645.69   689.53   708.08
                              770.46   808.88   822.58   831.56   863.20
                              900.29   904.98   919.97   954.45   975.81
                             1004.49  1024.51  1099.69  1179.79  1233.13
                             1337.75  1356.42  1373.09  1399.18  1417.18
                             1433.41  1451.03  1459.61  1493.63  1515.60
                             1528.90  1539.95  1544.55  1560.42  1568.84
                             1595.49  1608.47  1622.61  1625.04  1632.33
                             1643.54  1655.92  1674.04  1677.67  1689.24
                             1704.26  1718.97  1726.99  1763.26  1772.25
                             1782.96  1790.23  1807.32  1826.49  1852.63
                             1862.05  1869.49  1883.73  1905.32  1916.29
                             1921.83  1944.11  1944.98  1952.35  1967.80
                             2001.62  2008.96  2024.22  2062.87  2067.53
                             2102.06  2107.43  2108.20  2111.28  2199.25
                             4227.14  4629.55  4665.54  4683.05  4704.13
                             4706.68  4726.92  4743.07  4749.62  4755.76
                             4764.52  4766.37  4767.86  4788.90  4860.81
                             4872.31  4882.70  4889.74  4890.80  4896.88
                             5635.09  5637.16

 Zero-point correction=                           0.358713 (Hartree/Particle)
 Thermal correction to Energy=                    0.376560
 Thermal correction to Enthalpy=                  0.377505
 Thermal correction to Gibbs Free Energy=         0.313541
 Sum of electronic and zero-point Energies=          -1297.266720
 Sum of electronic and thermal Energies=             -1297.248873
 Sum of electronic and thermal Enthalpies=           -1297.247929
 Sum of electronic and thermal Free Energies=        -1297.311892

                     E (Thermal)             CV                S
                      KCal/Mol        Cal/Mol-Kelvin    Cal/Mol-Kelvin
 Total                  236.295             73.709            134.623
 Electronic               0.000              0.000              0.000
 Translational            0.889              2.981             43.384
 Rotational               0.889              2.981             35.132
 Vibrational            234.518             67.748             56.106
 Vibration     1          0.594              1.984              5.781
 Vibration     2          0.600              1.962              3.855
 Vibration     3          0.602              1.954              3.602
 Vibration     4          0.604              1.950              3.469
 Vibration     5          0.615              1.914              2.807
 Vibration     6          0.622              1.892              2.554
 Vibration     7          0.626              1.877              2.413
 Vibration     8          0.632              1.858              2.257
 Vibration     9          0.641              1.831              2.076
 Vibration    10          0.660              1.771              1.767
 Vibration    11          0.665              1.754              1.695
 Vibration    12          0.673              1.731              1.606
 Vibration    13          0.677              1.719              1.562
 Vibration    14          0.688              1.686              1.454
 Vibration    15          0.700              1.653              1.357
 Vibration    16          0.707              1.632              1.302
 Vibration    17          0.712              1.618              1.266
 Vibration    18          0.737              1.547              1.106
 Vibration    19          0.753              1.504              1.022
 Vibration    20          0.766              1.469              0.961
 Vibration    21          0.777              1.442              0.916
 Vibration    22          0.790              1.407              0.862
 Vibration    23          0.808              1.364              0.799
 Vibration    24          0.836              1.296              0.712
 Vibration    25          0.848              1.267              0.678
 Vibration    26          0.890              1.172              0.575
 Vibration    27          0.918              1.113              0.519
 Vibration    28          0.928              1.092              0.501
 Vibration    29          0.934              1.079              0.489
 Vibration    30          0.958              1.032              0.450

 Normal termination of Gaussian 09 at Thu Jan 21 19:03:31 2016.
