 Gaussian 09, Revision B.01,
 Gaussian 09:  EM64L-G09RevB.01 12-Aug-2010

 -------------------------------------------------
 # freq=raman b3lyp/6-31+g(2d,p) geom=connectivity
 -------------------------------------------------

 -----------------
 450 5905/5905.com
 -----------------
 Symbolic Z-matrix:
 Charge =  0 Multiplicity = 1

                         Standard orientation:
 ---------------------------------------------------------------------
 Center     Atomic      Atomic             Coordinates (Angstroms)
 Number     Number       Type             X           Y           Z
 ---------------------------------------------------------------------
      1          8           0       -5.101834    0.540283   -0.636035
      2          6           0       -3.837133    0.113527   -0.108249
      3          6           0       -3.285561   -1.273333   -0.398004
      4          8           0       -4.226342   -2.324908   -0.135048
      5          1           0       -5.163144   -1.988732   -0.043319
      6          6           0       -1.972203   -1.674948    0.252202
      7          8           0       -1.255562   -2.801020   -0.276357
      8          1           0       -1.638129   -3.647350    0.094172
      9          6           0       -3.276261    2.380083    0.497435
     10          8           0       -2.557990    3.590993    0.221793
     11          1           0       -2.918508    4.300847    0.825593
     12          6           0       -2.731532    1.151280   -0.211851
     13          8           0       -1.575260    0.608015    0.441242
     14          6           0       -0.983189   -0.578194   -0.107591
     15          8           0        0.147300   -0.483674    0.772145
     16          6           0        1.352322   -0.276799    0.021863
     17          6           0        1.825698    1.158926    0.182223
     18          8           0        0.829105    2.122667   -0.188419
     19          1           0       -0.057915    1.855392    0.188289
     20          6           0        3.160157    1.453858   -0.481764
     21          8           0        3.559263    2.831321   -0.508569
     22          1           0        2.936077    3.298967   -1.135591
     23          6           0        2.192093   -2.622092    0.591676
     24          8           0        2.603309   -3.184410   -0.663044
     25          1           0        2.117289   -4.055200   -0.583673
     26          6           0        2.476127   -1.129241    0.589158
     27          8           0        3.812555   -0.879224    0.131629
     28          6           0        4.131512    0.517496    0.218129
     29          8           0        5.427794    0.683833   -0.375072
     30          1           0        6.098989    0.347016    0.222968
     31          1           0        2.735245   -3.087901    1.387231
     32          1           0        1.143912   -2.786238    0.730501
     33          1           0        2.501590   -0.862974    1.625185
     34          1           0        1.194642   -0.505355   -1.011481
     35          1           0        1.986841    1.295026    1.231227
     36          1           0        3.085754    1.131091   -1.499205
     37          1           0        4.188140    0.792522    1.250628
     38          1           0       -5.795703    0.344031   -0.002291
     39          1           0       -3.248080    2.202415    1.552205
     40          1           0       -4.295818    2.516764    0.202950
     41          1           0       -2.517722    1.371346   -1.236915
     42          1           0       -4.032163    0.071045    0.942969
     43          1           0       -3.106222   -1.295406   -1.452637
     44          1           0       -2.078102   -1.753693    1.314033
     45          1           0       -0.747854   -0.497996   -1.148305
 ---------------------------------------------------------------------

 SCF Done:  E(RB3LYP) =  -1297.95733062     A.U. after   14 cycles

 The electronic state is 1-A.
 Alpha  occ. eigenvalues --  -19.19648 -19.18459 -19.18079 -19.18021 -19.17959
 Alpha  occ. eigenvalues --  -19.16314 -19.16181 -19.14891 -19.14846 -19.14790
 Alpha  occ. eigenvalues --  -19.13500 -10.31154 -10.28534 -10.27252 -10.26799
 Alpha  occ. eigenvalues --  -10.26591 -10.26391 -10.24571 -10.24464 -10.23793
 Alpha  occ. eigenvalues --  -10.23564 -10.22839 -10.22454  -1.11011  -1.07483
 Alpha  occ. eigenvalues --   -1.06808  -1.05480  -1.03944  -1.03646  -1.02639
 Alpha  occ. eigenvalues --   -1.02161  -1.01587  -1.00221  -0.99472  -0.82767
 Alpha  occ. eigenvalues --   -0.81733  -0.79150  -0.77484  -0.71986  -0.69638
 Alpha  occ. eigenvalues --   -0.67446  -0.64698  -0.63640  -0.62587  -0.60784
 Alpha  occ. eigenvalues --   -0.59646  -0.57765  -0.56482  -0.55097  -0.54108
 Alpha  occ. eigenvalues --   -0.53519  -0.53048  -0.52490  -0.52145  -0.50412
 Alpha  occ. eigenvalues --   -0.50058  -0.49758  -0.48946  -0.47189  -0.46869
 Alpha  occ. eigenvalues --   -0.45272  -0.45224  -0.44371  -0.44155  -0.43496
 Alpha  occ. eigenvalues --   -0.43395  -0.41781  -0.40594  -0.40169  -0.38976
 Alpha  occ. eigenvalues --   -0.38245  -0.37080  -0.36973  -0.36552  -0.36242
 Alpha  occ. eigenvalues --   -0.35844  -0.35519  -0.34599  -0.33993  -0.33685
 Alpha  occ. eigenvalues --   -0.32925  -0.31442  -0.30875  -0.30059  -0.29517
 Alpha  occ. eigenvalues --   -0.28967  -0.28777  -0.27579  -0.27398  -0.26978
 Alpha  occ. eigenvalues --   -0.25557
 Alpha virt. eigenvalues --   -0.04439  -0.02076  -0.01308   0.00111   0.00541
 Alpha virt. eigenvalues --    0.01055   0.01203   0.02191   0.02457   0.02916
 Alpha virt. eigenvalues --    0.03894   0.04250   0.04921   0.05157   0.05718

 Mulliken atomic charges:
              1
     1  O   -0.526132
     2  C   -0.404716
     3  C    0.449610
     4  O   -0.571950
     5  H    0.322570
     6  C    0.087288
     7  O   -0.556497
     8  H    0.343727
     9  C   -0.344291
    10  O   -0.518812
    11  H    0.328287
    12  C    0.317751
    13  O   -0.274017
    14  C    0.136794
    15  O   -0.192030
    16  C    0.364332
    17  C    0.246715
    18  O   -0.612032
    19  H    0.385376
    20  C   -0.209210
    21  O   -0.499268
    22  H    0.345928
    23  C   -0.443965
    24  O   -0.459419
    25  H    0.319251
    26  C   -0.068284
    27  O   -0.273580
    28  C    0.358127
    29  O   -0.504616
    30  H    0.320226
    31  H    0.128565
    32  H    0.167453
    33  H    0.101386
    34  H    0.112562
    35  H    0.102392
    36  H    0.121157
    37  H    0.115417
    38  H    0.333973
    39  H    0.142746
    40  H    0.166855
    41  H    0.126235
    42  H    0.108944
    43  H    0.119172
    44  H    0.136131
    45  H    0.149848
 Sum of Mulliken atomic charges =   0.00000

 Dipole moment (field-independent basis, Debye):
    X=             -8.0715    Y=             -2.3170    Z=              4.1237  Tot=              9.3554
 Quadrupole moment (field-independent basis, Debye-Ang):
   XX=           -127.2652   YY=           -136.0197   ZZ=           -136.2167
   XY=             -8.1466   XZ=             -0.2021   YZ=             -1.9281

  Exact polarizability: 226.493   1.417 200.968  -0.699  -1.589 146.109
 Approx polarizability: 270.716  -0.142 261.730  -4.129  -2.437 242.748

 ******    6 imaginary frequencies (negative Signs) ******

                     1                      2                      3
                     A                      A                      A
 Frequencies --  -230.1577              -183.4757              -151.5942
 Red. masses --     1.8819                 2.4160                 1.1258
 Frc consts  --     0.0587                 0.0479                 0.0152
 IR Inten    --     4.1933                 3.4285                94.5959
 Raman Activ --     0.0485                 0.3251                 1.3550

                     4                      5                      6
                     A                      A                      A
 Frequencies --  -106.8773               -70.9396               -60.9975
 Red. masses --     2.0133                 4.7797                 5.8335
 Frc consts  --     0.0135                 0.0142                 0.0128
 IR Inten    --    46.6978                 5.6966                 5.0180
 Raman Activ --     0.2383                 0.2193                 0.0615

                     7                      8                      9
                     A                      A                      A
 Frequencies --    31.6307                41.8236                53.4988
 Red. masses --     5.4295                 3.7789                 6.7997
 Frc consts  --     0.0032                 0.0039                 0.0115
 IR Inten    --     5.1627                20.7344                 0.3436
 Raman Activ --     0.1009                 0.1792                 0.0745

                    10                     11                     12
                     A                      A                      A
 Frequencies --    62.1900                89.6901               119.6413
 Red. masses --     5.4004                 5.7301                 5.7721
 Frc consts  --     0.0123                 0.0272                 0.0487
 IR Inten    --     1.9172                10.8367                 2.7219
 Raman Activ --     0.2997                 0.1505                 0.1378

                    13                     14                     15
                     A                      A                      A
 Frequencies --   128.8793               157.1178               187.3147
 Red. masses --     4.5065                 6.0768                 5.7278
 Frc consts  --     0.0441                 0.0884                 0.1184
 IR Inten    --     7.1650                 4.1768                 2.8302
 Raman Activ --     0.4677                 0.6395                 0.4550

                    16                     17                     18
                     A                      A                      A
 Frequencies --   197.1402               233.0554               249.7859
 Red. masses --     4.8701                 5.7858                 5.3404
 Frc consts  --     0.1115                 0.1852                 0.1963
 IR Inten    --     1.7161                 4.0846                 6.7555
 Raman Activ --     0.3671                 0.8410                 1.7396

                    19                     20                     21
                     A                      A                      A
 Frequencies --   259.5033               282.3809               290.9077
 Red. masses --     4.5183                 5.3209                 5.6353
 Frc consts  --     0.1793                 0.2500                 0.2810
 IR Inten    --     0.2987                 6.4986                 3.4073
 Raman Activ --     0.3962                 0.2241                 0.4753

                    22                     23                     24
                     A                      A                      A
 Frequencies --   299.8561               312.5416               327.6020
 Red. masses --     3.9919                 4.0584                 4.9877
 Frc consts  --     0.2115                 0.2336                 0.3154
 IR Inten    --     5.5236                 4.2608                 4.9685
 Raman Activ --     0.9863                 0.3552                 0.2001

                    25                     26                     27
                     A                      A                      A
 Frequencies --   332.8864               366.8965               373.2351
 Red. masses --     5.5341                 5.9868                 4.3836
 Frc consts  --     0.3613                 0.4748                 0.3598
 IR Inten    --     3.9881                 0.6527                 7.8875
 Raman Activ --     5.9851                 2.1428                 4.0269

                    28                     29                     30
                     A                      A                      A
 Frequencies --   406.7222               410.9360               426.2491
 Red. masses --     6.7430                 4.9892                 5.4359
 Frc consts  --     0.6572                 0.4964                 0.5819
 IR Inten    --     6.2327                 7.8510                 0.2029
 Raman Activ --     5.4183                 0.3582                 0.4282

                    31                     32                     33
                     A                      A                      A
 Frequencies --   463.4281               483.2850               493.7826
 Red. masses --     4.6771                 3.8847                 4.4703
 Frc consts  --     0.5918                 0.5346                 0.6422
 IR Inten    --     7.1247                 8.5929                 9.0263
 Raman Activ --     4.5619                 0.8312                 4.1367

                    34                     35                     36
                     A                      A                      A
 Frequencies --   517.2224               549.2199               575.2520
 Red. masses --     4.1892                 3.8361                 3.9403
 Frc consts  --     0.6603                 0.6818                 0.7682
 IR Inten    --    17.2699                25.5574                30.5200
 Raman Activ --     1.8483                 5.1550                 1.0310

                    37                     38                     39
                     A                      A                      A
 Frequencies --   583.0834               592.2944               608.4991
 Red. masses --     3.3765                 2.9316                 1.8021
 Frc consts  --     0.6764                 0.6059                 0.3931
 IR Inten    --    26.3710                25.9698                28.4901
 Raman Activ --     0.7779                 0.8046                 1.6198

                    40                     41                     42
                     A                      A                      A
 Frequencies --   635.9332               667.3084               685.1260
 Red. masses --     1.7966                 4.3558                 1.1190
 Frc consts  --     0.4281                 1.1428                 0.3095
 IR Inten    --    38.9460                 7.4708               111.6101
 Raman Activ --     0.9637                 0.2099                 1.4890

                    43                     44                     45
                     A                      A                      A
 Frequencies --   701.2436               705.0122               734.7884
 Red. masses --     2.7244                 1.2391                 1.1365
 Frc consts  --     0.7893                 0.3629                 0.3615
 IR Inten    --    26.4325                88.4766               115.7502
 Raman Activ --     0.6073                 1.9838                 1.1223

                    46                     47                     48
                     A                      A                      A
 Frequencies --   748.7829               816.8321               854.4135
 Red. masses --     1.0902                 1.1151                 2.5317
 Frc consts  --     0.3601                 0.4384                 1.0889
 IR Inten    --   102.0136               115.5918                 0.4092
 Raman Activ --     1.8350                 2.6514                 8.8041

                    49                     50                     51
                     A                      A                      A
 Frequencies --   888.0794               907.8347               921.3287
 Red. masses --     3.4403                 2.1008                 5.4127
 Frc consts  --     1.5986                 1.0201                 2.7070
 IR Inten    --    32.8878                 5.7724               164.6990
 Raman Activ --     2.3493                 1.5204                 2.2061

                    52                     53                     54
                     A                      A                      A
 Frequencies --   960.2026               961.6362               981.8744
 Red. masses --     6.7611                 6.8964                 4.2327
 Frc consts  --     3.6728                 3.7575                 2.4042
 IR Inten    --   250.8757                41.8805                47.8602
 Raman Activ --     1.1320                 3.6016                 1.2741

                    55                     56                     57
                     A                      A                      A
 Frequencies --   992.5393              1006.1647              1021.3998
 Red. masses --     6.0828                 5.2350                 4.2340
 Frc consts  --     3.5306                 3.1225                 2.6025
 IR Inten    --   110.9794               220.4911                70.7973
 Raman Activ --     1.0526                 1.7068                 7.3646

                    58                     59                     60
                     A                      A                      A
 Frequencies --  1037.2227              1049.8066              1052.9502
 Red. masses --     2.9337                 3.3416                 4.6198
 Frc consts  --     1.8596                 2.1698                 3.0178
 IR Inten    --   197.6131                79.5902               109.1826
 Raman Activ --     3.2366                 4.6156                 3.4763

                    61                     62                     63
                     A                      A                      A
 Frequencies --  1064.7934              1066.7969              1083.2004
 Red. masses --     3.2354                 6.1193                 2.4289
 Frc consts  --     2.1613                 4.1032                 1.6791
 IR Inten    --    63.4481                41.1627                52.6031
 Raman Activ --     3.0370                11.5056                 0.7234

                    64                     65                     66
                     A                      A                      A
 Frequencies --  1089.2497              1100.1835              1106.4653
 Red. masses --     4.5899                 2.4218                 2.6126
 Frc consts  --     3.2085                 1.7271                 1.8845
 IR Inten    --    43.1059                13.0162                43.4992
 Raman Activ --    11.2389                 3.8887                 9.5954

                    67                     68                     69
                     A                      A                      A
 Frequencies --  1115.0366              1119.1917              1147.0291
 Red. masses --     2.8408                 2.7577                 3.0203
 Frc consts  --     2.0810                 2.0352                 2.3413
 IR Inten    --    39.1770               105.5730                 3.4163
 Raman Activ --     7.0155                 2.3239                 0.8054

                    70                     71                     72
                     A                      A                      A
 Frequencies --  1152.0917              1159.4530              1164.5228
 Red. masses --     2.9328                 1.9753                 2.2779
 Frc consts  --     2.2935                 1.5645                 1.8201
 IR Inten    --    54.1431                12.4622                29.8865
 Raman Activ --     5.9341                 3.9034                 1.2279

                    73                     74                     75
                     A                      A                      A
 Frequencies --  1169.7683              1179.2538              1187.5832
 Red. masses --     2.1666                 2.5243                 1.6805
 Frc consts  --     1.7468                 2.0683                 1.3964
 IR Inten    --    16.7026                 6.1080                 0.0481
 Raman Activ --     3.1138                 1.5039                 2.6801

                    76                     77                     78
                     A                      A                      A
 Frequencies --  1191.5192              1208.2481              1217.7206
 Red. masses --     1.7677                 1.2737                 1.4204
 Frc consts  --     1.4787                 1.0955                 1.2410
 IR Inten    --    26.3447                 3.6188                 1.6446
 Raman Activ --     0.9460                 2.3939                 3.8653

                    79                     80                     81
                     A                      A                      A
 Frequencies --  1240.3321              1262.6044              1265.6072
 Red. masses --     1.2203                 1.2599                 1.2433
 Frc consts  --     1.1061                 1.1834                 1.1734
 IR Inten    --    19.1166                 6.2273                17.6131
 Raman Activ --     3.8306                 3.6058                 5.5181

                    82                     83                     84
                     A                      A                      A
 Frequencies --  1272.3848              1277.1215              1281.1455
 Red. masses --     1.1809                 1.2198                 1.3777
 Frc consts  --     1.1264                 1.1722                 1.3323
 IR Inten    --     8.9613                 6.5288                 6.8540
 Raman Activ --     3.6205                 4.2003                 2.8488

                    85                     86                     87
                     A                      A                      A
 Frequencies --  1289.4928              1312.8986              1317.6451
 Red. masses --     1.2621                 1.3304                 1.3426
 Frc consts  --     1.2364                 1.3512                 1.3733
 IR Inten    --    11.0991                30.9028                29.9667
 Raman Activ --     2.6194                 1.0786                 1.5009

                    88                     89                     90
                     A                      A                      A
 Frequencies --  1326.7315              1331.1690              1332.0104
 Red. masses --     1.2135                 1.2089                 1.2472
 Frc consts  --     1.2585                 1.2621                 1.3038
 IR Inten    --    22.5086                29.7121                19.0068
 Raman Activ --     4.4489                 1.8356                 2.2414

                    91                     92                     93
                     A                      A                      A
 Frequencies --  1340.9983              1346.7366              1353.4270
 Red. masses --     1.2098                 1.2476                 1.2503
 Frc consts  --     1.2818                 1.3332                 1.3493
 IR Inten    --    53.6161                15.1505                17.0025
 Raman Activ --     4.0249                 4.9237                 3.1957

                    94                     95                     96
                     A                      A                      A
 Frequencies --  1363.3833              1370.6541              1372.6841
 Red. masses --     1.1942                 1.4012                 1.5201
 Frc consts  --     1.3079                 1.5510                 1.6876
 IR Inten    --    18.7086                21.1891                14.5783
 Raman Activ --     6.6026                 1.3759                 4.9907

                    97                     98                     99
                     A                      A                      A
 Frequencies --  1391.3940              1403.5410              1410.3745
 Red. masses --     1.4131                 1.3908                 1.3112
 Frc consts  --     1.6119                 1.6142                 1.5367
 IR Inten    --     9.1591                33.5762                 7.1531
 Raman Activ --     2.2990                 6.8107                 5.3127

                   100                    101                    102
                     A                      A                      A
 Frequencies --  1435.3574              1448.6922              1450.9304
 Red. masses --     1.1940                 1.4121                 1.3980
 Frc consts  --     1.4494                 1.7462                 1.7340
 IR Inten    --     1.0315                32.1728                 7.7478
 Raman Activ --     4.5055                 3.6203                 2.6261

                   103                    104                    105
                     A                      A                      A
 Frequencies --  1458.9541              1472.0469              1473.2202
 Red. masses --     1.2409                 1.1939                 1.0793
 Frc consts  --     1.5562                 1.5242                 1.3802
 IR Inten    --    11.6498                15.5045                 9.7988
 Raman Activ --     1.3417                 4.5192                 4.7719

                   106                    107                    108
                     A                      A                      A
 Frequencies --  1477.1371              1508.0456              3243.9074
 Red. masses --     1.4263                 1.3037                 1.0789
 Frc consts  --     1.8336                 1.7469                 6.6893
 IR Inten    --    54.0667                30.6448                 5.4431
 Raman Activ --     2.6014                 1.3718                73.5547

                   109                    110                    111
                     A                      A                      A
 Frequencies --  3245.5995              3255.4696              3262.4727
 Red. masses --     1.0765                 1.0770                 1.0581
 Frc consts  --     6.6811                 6.7248                 6.6358
 IR Inten    --    15.3419                 6.6903                19.5564
 Raman Activ --    18.4106                14.6845               122.2240

                   112                    113                    114
                     A                      A                      A
 Frequencies --  3263.6098              3268.2954              3269.0013
 Red. masses --     1.0673                 1.0799                 1.0827
 Frc consts  --     6.6978                 6.7965                 6.8171
 IR Inten    --    39.0681                23.4550                39.3137
 Raman Activ --   119.0181               250.6268                 2.2296

                   115                    116                    117
                     A                      A                      A
 Frequencies --  3282.2358              3290.9186              3292.2458
 Red. masses --     1.0859                 1.0845                 1.0875
 Frc consts  --     6.8926                 6.9204                 6.9447
 IR Inten    --    25.2156                26.4061                64.5896
 Raman Activ --     9.7926                47.6589                 8.5882

                   118                    119                    120
                     A                      A                      A
 Frequencies --  3303.1048              3311.9718              3318.5260
 Red. masses --     1.0870                 1.0848                 1.1073
 Frc consts  --     6.9877                 7.0109                 7.1846
 IR Inten    --     5.6765                52.4144                22.2590
 Raman Activ --    53.2157                 9.3730                60.4774

                   121                    122                    123
                     A                      A                      A
 Frequencies --  3318.7801              3322.1240              3364.9338
 Red. masses --     1.1005                 1.0752                 1.0660
 Frc consts  --     7.1418                 6.9912                 7.1112
 IR Inten    --    80.7460               303.1160                18.9022
 Raman Activ --    22.5086               191.2955                95.6775

                   124                    125                    126
                     A                      A                      A
 Frequencies --  3371.7523              3372.8452              3377.8657
 Red. masses --     1.0669                 1.0666                 1.0663
 Frc consts  --     7.1465                 7.1491                 7.1684
 IR Inten    --    26.3367                40.5375                52.7052
 Raman Activ --    94.9724               169.4181                73.9295

                   127                    128                    129
                     A                      A                      A
 Frequencies --  3379.4923              3879.4131              3886.6943
 Red. masses --     1.0667                 1.0679                 1.0669
 Frc consts  --     7.1776                 9.4692                 9.4956
 IR Inten    --    41.4778                68.3785                55.1902
 Raman Activ --   165.1822                91.6580               137.3900

 - Thermochemistry -
 -------------------
 Temperature   298.150 Kelvin.  Pressure   1.00000 Atm.
 Atom     1 has atomic number  8 and mass  15.99491

 Molecular mass:   342.11621 amu.
 Principal axes and moments of inertia in atomic units:
                           1         2         3
     Eigenvalues --  4589.56552********************
           X            0.99998  -0.00676   0.00030
           Y            0.00676   0.99998  -0.00135
           Z           -0.00029   0.00135   1.00000
 This molecule is an asymmetric top.
 Rotational symmetry number  1.
 Warning -- assumption of classical behavior for rotation
           may cause significant error
 Rotational temperatures (Kelvin)      0.01887     0.00732     0.00546
 Rotational constants (GHZ):           0.39323     0.15251     0.11376
    6 imaginary frequencies ignored.
 Zero-point vibrational energy     973928.4 (Joules/Mol)
                                  232.77448 (Kcal/Mol)
 Warning -- explicit consideration of  33 degrees of freedom as
           vibrations may cause significant error
 Vibrational temperatures:     45.51    60.17    76.97    89.48   129.04
          (Kelvin)            172.14   185.43   226.06   269.50   283.64
                              335.31   359.39   373.37   406.28   418.55
                              431.43   449.68   471.35   478.95   527.88
                              537.00   585.18   591.24   613.28   666.77
                              695.34   710.44   744.17   790.20   827.66
                              838.93   852.18   875.49   914.96   960.11
                              985.74  1008.93  1014.35  1057.20  1077.33
                             1175.24  1229.31  1277.75  1306.17  1325.58
                             1381.52  1383.58  1412.70  1428.04  1447.64
                             1469.56  1492.33  1510.44  1514.96  1532.00
                             1534.88  1558.48  1567.19  1582.92  1591.95
                             1604.29  1610.27  1650.32  1657.60  1668.19
                             1675.49  1683.03  1696.68  1708.67  1714.33
                             1738.40  1752.03  1784.56  1816.60  1820.92
                             1830.68  1837.49  1843.28  1855.29  1888.97
                             1895.80  1908.87  1915.25  1916.46  1929.39
                             1937.65  1947.28  1961.60  1972.06  1974.98
                             2001.90  2019.38  2029.21  2065.16  2084.34
                             2087.56  2099.11  2117.94  2119.63  2125.27
                             2169.74  4667.25  4669.69  4683.89  4693.96
                             4695.60  4702.34  4703.36  4722.40  4734.89
                             4736.80  4752.43  4765.18  4774.61  4774.98
                             4779.79  4841.38  4851.19  4852.77  4859.99
                             4862.33  5581.60  5592.08

 Zero-point correction=                           0.370950 (Hartree/Particle)
 Thermal correction to Energy=                    0.390417
 Thermal correction to Enthalpy=                  0.391361
 Thermal correction to Gibbs Free Energy=         0.322864
 Sum of electronic and zero-point Energies=          -1297.586381
 Sum of electronic and thermal Energies=             -1297.566914
 Sum of electronic and thermal Enthalpies=           -1297.565970
 Sum of electronic and thermal Free Energies=        -1297.634466

                     E (Thermal)             CV                S
                      KCal/Mol        Cal/Mol-Kelvin    Cal/Mol-Kelvin
 Total                  244.990             78.279            144.163
 Electronic               0.000              0.000              0.000
 Translational            0.889              2.981             43.384
 Rotational               0.889              2.981             35.109
 Vibrational            243.213             72.318             65.669
 Vibration     1          0.594              1.983              5.724
 Vibration     2          0.594              1.980              5.171
 Vibration     3          0.596              1.976              4.684
 Vibration     4          0.597              1.972              4.386
 Vibration     5          0.602              1.956              3.667
 Vibration     6          0.609              1.933              3.106
 Vibration     7          0.611              1.924              2.963
 Vibration     8          0.621              1.895              2.584
 Vibration     9          0.632              1.857              2.254
 Vibration    10          0.637              1.844              2.160
 Vibration    11          0.654              1.790              1.855
 Vibration    12          0.663              1.763              1.732
 Vibration    13          0.668              1.747              1.665
 Vibration    14          0.681              1.706              1.519
 Vibration    15          0.687              1.691              1.469
 Vibration    16          0.692              1.674              1.418
 Vibration    17          0.701              1.650              1.349
 Vibration    18          0.711              1.620              1.272
 Vibration    19          0.715              1.610              1.246
 Vibration    20          0.740              1.540              1.093
 Vibration    21          0.745              1.527              1.066
 Vibration    22          0.771              1.456              0.938
 Vibration    23          0.775              1.446              0.923
 Vibration    24          0.788              1.413              0.871
 Vibration    25          0.821              1.331              0.756
 Vibration    26          0.839              1.287              0.701
 Vibration    27          0.849              1.264              0.674
 Vibration    28          0.872              1.212              0.616
 Vibration    29          0.904              1.141              0.546
 Vibration    30          0.932              1.085              0.494
 Vibration    31          0.940              1.068              0.480
 Vibration    32          0.950              1.048              0.463
 Vibration    33          0.967              1.014              0.435

 Normal termination of Gaussian 09 at Mon Mar 28 10:21:04 2016.
