 Gaussian 09, Revision B.01,
 Gaussian 09:  EM64L-G09RevB.01 12-Aug-2010

 --------------------------------------------------
 # freq=raman b3lyp/6-31+g(2df,p) geom=connectivity
 --------------------------------------------------

 ------------
 350 6000.com
 ------------
 Symbolic Z-matrix:
 Charge =  0 Multiplicity = 1

                         Standard orientation:
 ---------------------------------------------------------------------
 Center     Atomic      Atomic             Coordinates (Angstroms)
 Number     Number       Type             X           Y           Z
 ---------------------------------------------------------------------
      1          8           0        5.030671   -0.356420   -0.525313
      2          6           0        3.766987   -0.037430    0.075789
      3          6           0        3.257086    1.311924   -0.401353
      4          8           0        4.193770    2.378999   -0.194546
      5          1           0        5.099388    1.956993   -0.227845
      6          6           0        1.840448    1.592403    0.072584
      7          8           0        1.283689    2.850980   -0.334366
      8          1           0        0.449589    3.033931    0.186955
      9          6           0        3.022522   -2.562386    0.476687
     10          8           0        4.151774   -3.322761    0.022571
     11          1           0        3.884298   -4.249950   -0.239472
     12          6           0        2.807287   -1.194550   -0.149347
     13          8           0        1.488581   -0.845153    0.295515
     14          6           0        0.937964    0.393491   -0.175286
     15          8           0       -0.282116    0.610468    0.547935
     16          6           0       -1.536462    0.214211   -0.026779
     17          6           0       -1.975105   -1.199697    0.314574
     18          8           0       -0.875761   -2.077922    0.034076
     19          1           0        0.000603   -1.617927    0.178665
     20          6           0       -3.313862   -1.600414   -0.283906
     21          8           0       -3.778861   -2.780335    0.388560
     22          1           0       -4.722530   -2.903176    0.083938
     23          6           0       -2.440455    2.641988    0.036060
     24          8           0       -1.519305    3.432657    0.801147
     25          1           0       -1.789506    4.392357    0.718794
     26          6           0       -2.637934    1.175761    0.386559
     27          8           0       -3.707249    0.724205   -0.457242
     28          6           0       -4.356513   -0.508015   -0.111617
     29          8           0       -5.550220   -0.690179   -0.887479
     30          1           0       -6.300790   -0.799470   -0.299006
     31          1           0       -4.631605   -0.465912    0.921559
     32          1           0       -3.188669   -1.811022   -1.325477
     33          1           0       -2.110188   -1.222223    1.375774
     34          1           0       -1.436351    0.273194   -1.090451
     35          1           0       -2.889666    1.054244    1.419402
     36          1           0       -3.397327    3.116473    0.100560
     37          1           0       -2.125316    2.685519   -0.985553
     38          1           0        0.725052    0.315952   -1.221018
     39          1           0        1.917338    1.662778    1.137495
     40          1           0        3.178277    1.218242   -1.464327
     41          1           0        5.679103   -0.523669    0.162556
     42          1           0        3.926935    0.040638    1.130882
     43          1           0        2.754211   -1.344908   -1.207400
     44          1           0        2.142861   -3.145376    0.300001
     45          1           0        3.122722   -2.426726    1.533312
 ---------------------------------------------------------------------

 SCF Done:  E(RB3LYP) =  -1298.01703476     A.U. after   13 cycles

 The electronic state is 1-A.
 Alpha  occ. eigenvalues --  -19.19097 -19.19048 -19.18091 -19.18016 -19.17569
 Alpha  occ. eigenvalues --  -19.17281 -19.16472 -19.16209 -19.15753 -19.14853
 Alpha  occ. eigenvalues --  -19.13170 -10.31014 -10.30864 -10.26205 -10.26027
 Alpha  occ. eigenvalues --  -10.26005 -10.25086 -10.24904 -10.24859 -10.24759
 Alpha  occ. eigenvalues --  -10.24753 -10.24619 -10.24014  -1.10074  -1.08955
 Alpha  occ. eigenvalues --   -1.05757  -1.04846  -1.04116  -1.03691  -1.03089
 Alpha  occ. eigenvalues --   -1.02657  -1.02385  -1.00881  -0.99978  -0.82079
 Alpha  occ. eigenvalues --   -0.80772  -0.79382  -0.78430  -0.71923  -0.70513
 Alpha  occ. eigenvalues --   -0.67722  -0.64746  -0.63568  -0.62749  -0.61327
 Alpha  occ. eigenvalues --   -0.60278  -0.56629  -0.55851  -0.55276  -0.54956
 Alpha  occ. eigenvalues --   -0.54401  -0.53746  -0.52732  -0.51977  -0.51172
 Alpha  occ. eigenvalues --   -0.50479  -0.50038  -0.49698  -0.48822  -0.46548
 Alpha  occ. eigenvalues --   -0.46162  -0.45453  -0.44791  -0.44051  -0.43728
 Alpha  occ. eigenvalues --   -0.42625  -0.42121  -0.41498  -0.39972  -0.39168
 Alpha  occ. eigenvalues --   -0.38794  -0.38058  -0.36993  -0.36435  -0.35786
 Alpha  occ. eigenvalues --   -0.35337  -0.34993  -0.34732  -0.34169  -0.33734
 Alpha  occ. eigenvalues --   -0.32894  -0.31798  -0.31150  -0.30372  -0.30073
 Alpha  occ. eigenvalues --   -0.29799  -0.29244  -0.27753  -0.27698  -0.27557
 Alpha  occ. eigenvalues --   -0.26290
 Alpha virt. eigenvalues --   -0.02448  -0.01969  -0.01871  -0.00436   0.00579
 Alpha virt. eigenvalues --    0.01151   0.01933   0.02338   0.03052   0.03384
 Alpha virt. eigenvalues --    0.03941   0.04337   0.04805   0.05308   0.05567

 Mulliken atomic charges:
              1
     1  O   -0.431445
     2  C   -0.202944
     3  C    0.078184
     4  O   -0.447787
     5  H    0.346972
     6  C   -0.131738
     7  O   -0.468920
     8  H    0.403015
     9  C   -0.323753
    10  O   -0.457672
    11  H    0.347837
    12  C   -0.013551
    13  O   -0.047569
    14  C    0.191729
    15  O   -0.077027
    16  C   -0.185979
    17  C    0.093674
    18  O   -0.528740
    19  H    0.446764
    20  C    0.127543
    21  O   -0.445845
    22  H    0.332494
    23  C   -0.359333
    24  O   -0.472945
    25  H    0.356579
    26  C   -0.058563
    27  O   -0.055264
    28  C   -0.167008
    29  O   -0.462103
    30  H    0.351040
    31  H    0.130705
    32  H    0.140221
    33  H    0.121034
    34  H    0.126536
    35  H    0.131376
    36  H    0.151199
    37  H    0.162295
    38  H    0.130747
    39  H    0.129996
    40  H    0.121224
    41  H    0.354689
    42  H    0.127614
    43  H    0.119053
    44  H    0.161447
    45  H    0.154217
 Sum of Mulliken atomic charges =   0.00000

 Dipole moment (field-independent basis, Debye):
    X=             -2.7632    Y=             -0.1550    Z=              1.8818  Tot=              3.3467
 Quadrupole moment (field-independent basis, Debye-Ang):
   XX=           -112.6756   YY=           -138.8489   ZZ=           -141.6491
   XY=            -14.9711   XZ=             -0.9968   YZ=              4.4759

  Exact polarizability: 234.324   1.416 199.152  -0.073   0.688 145.191
 Approx polarizability: 275.582   0.715 258.155  -0.282   2.069 240.170

 ******    7 imaginary frequencies (negative Signs) ******

                     1                      2                      3
                     A                      A                      A
 Frequencies --  -264.0255              -242.9129              -148.5005
 Red. masses --     1.7531                 1.6833                 1.3409
 Frc consts  --     0.0720                 0.0585                 0.0174
 IR Inten    --     4.5056                 6.6238                85.7645
 Raman Activ --     0.0571                 0.1586                 0.6100

                     4                      5                      6
                     A                      A                      A
 Frequencies --  -138.5593               -74.2669               -58.4665
 Red. masses --     1.3577                 6.3065                 5.6174
 Frc consts  --     0.0154                 0.0205                 0.0113
 IR Inten    --    99.3156                 0.4893                 4.8203
 Raman Activ --     0.6603                 0.0257                 0.0309

                     7                      8                      9
                     A                      A                      A
 Frequencies --   -28.9628                36.2585                43.7823
 Red. masses --     5.9478                 6.6354                 6.8361
 Frc consts  --     0.0029                 0.0051                 0.0077
 IR Inten    --     1.7218                 8.0010                 0.7011
 Raman Activ --     0.0635                 0.0654                 0.0759

                    10                     11                     12
                     A                      A                      A
 Frequencies --    69.9585                90.6888               118.4416
 Red. masses --     6.2880                 6.4165                 5.9481
 Frc consts  --     0.0181                 0.0311                 0.0492
 IR Inten    --     3.0019                 2.5797                 1.9032
 Raman Activ --     0.2468                 0.0422                 0.2978

                    13                     14                     15
                     A                      A                      A
 Frequencies --   136.4414               154.3256               173.4176
 Red. masses --     6.1334                 6.1516                 6.1907
 Frc consts  --     0.0673                 0.0863                 0.1097
 IR Inten    --     0.2539                 3.2780                 1.4506
 Raman Activ --     0.1310                 0.1988                 0.2729

                    16                     17                     18
                     A                      A                      A
 Frequencies --   192.3809               231.2890               235.5360
 Red. masses --     6.6083                 6.0758                 4.3439
 Frc consts  --     0.1441                 0.1915                 0.1420
 IR Inten    --     0.8004                 0.9584                19.2404
 Raman Activ --     2.1964                 1.6064                 0.1428

                    19                     20                     21
                     A                      A                      A
 Frequencies --   268.6920               286.6470               294.0798
 Red. masses --     4.4749                 4.0677                 5.5491
 Frc consts  --     0.1903                 0.1969                 0.2827
 IR Inten    --     2.1939                 1.1032                 2.2520
 Raman Activ --     0.1968                 0.1704                 0.5303

                    22                     23                     24
                     A                      A                      A
 Frequencies --   308.5394               317.3915               324.0137
 Red. masses --     4.3880                 5.6749                 4.9263
 Frc consts  --     0.2461                 0.3368                 0.3047
 IR Inten    --     6.8140                 6.4779                 2.0440
 Raman Activ --     1.0180                 2.5306                 1.5654

                    25                     26                     27
                     A                      A                      A
 Frequencies --   332.9079               358.5152               368.6966
 Red. masses --     6.1863                 4.9719                 6.2348
 Frc consts  --     0.4039                 0.3765                 0.4994
 IR Inten    --     4.5505                 3.6777                 2.3904
 Raman Activ --     8.5967                 0.2434                 0.6071

                    28                     29                     30
                     A                      A                      A
 Frequencies --   396.2471               408.8418               423.8057
 Red. masses --     4.9116                 6.0786                 4.8630
 Frc consts  --     0.4544                 0.5986                 0.5146
 IR Inten    --    15.6492                 3.5077                 2.1678
 Raman Activ --     2.2111                 5.0203                 1.9750

                    31                     32                     33
                     A                      A                      A
 Frequencies --   431.0942               458.7586               478.5634
 Red. masses --     5.8675                 4.2958                 3.9291
 Frc consts  --     0.6425                 0.5327                 0.5302
 IR Inten    --     2.6167                 8.8606                14.0470
 Raman Activ --     2.9452                 2.2876                 1.0382

                    34                     35                     36
                     A                      A                      A
 Frequencies --   495.5809               519.7262               552.4173
 Red. masses --     3.3668                 3.8740                 3.7909
 Frc consts  --     0.4872                 0.6165                 0.6816
 IR Inten    --     2.8510                21.9171                16.1788
 Raman Activ --     5.8355                 1.1185                 2.3827

                    37                     38                     39
                     A                      A                      A
 Frequencies --   564.2910               586.0833               603.0308
 Red. masses --     3.0346                 5.7789                 5.1123
 Frc consts  --     0.5693                 1.1695                 1.0953
 IR Inten    --    23.7645                10.6690                 4.7370
 Raman Activ --     0.5171                 0.8803                 0.6173

                    40                     41                     42
                     A                      A                      A
 Frequencies --   617.0943               663.7942               683.0969
 Red. masses --     4.3051                 1.4142                 2.6488
 Frc consts  --     0.9659                 0.3671                 0.7282
 IR Inten    --    50.5282                77.3803                14.1150
 Raman Activ --     2.1878                 0.9706                 1.0059

                    43                     44                     45
                     A                      A                      A
 Frequencies --   718.8874               725.2697               749.8767
 Red. masses --     1.0737                 1.0727                 1.0756
 Frc consts  --     0.3269                 0.3325                 0.3564
 IR Inten    --    74.5104               106.9930                97.5804
 Raman Activ --     1.3794                 1.6597                 1.8012

                    46                     47                     48
                     A                      A                      A
 Frequencies --   791.2916               812.7298               837.7382
 Red. masses --     1.0734                 1.0735                 1.7693
 Frc consts  --     0.3960                 0.4178                 0.7316
 IR Inten    --    54.3999                91.2076                 7.7278
 Raman Activ --     0.5906                 0.8587                 0.7334

                    49                     50                     51
                     A                      A                      A
 Frequencies --   854.1292               922.3084               946.6157
 Red. masses --     1.7294                 6.1439                 5.6612
 Frc consts  --     0.7434                 3.0793                 2.9889
 IR Inten    --     2.4331               191.0490                68.7671
 Raman Activ --     0.6156                 2.7529                 0.4431

                    52                     53                     54
                     A                      A                      A
 Frequencies --   970.3272               977.6455               991.0369
 Red. masses --     7.3576                 4.7190                 4.4051
 Frc consts  --     4.0815                 2.6575                 2.5491
 IR Inten    --    66.3546                65.8109                49.9887
 Raman Activ --     2.7708                 2.1609                 1.2171

                    55                     56                     57
                     A                      A                      A
 Frequencies --   999.7249              1007.5710              1022.5760
 Red. masses --     7.4173                 6.6719                 5.5617
 Frc consts  --     4.3678                 3.9907                 3.4265
 IR Inten    --   314.1539                45.7079               157.5933
 Raman Activ --     1.1830                 3.4887                 2.8894

                    58                     59                     60
                     A                      A                      A
 Frequencies --  1038.8716              1049.7926              1063.8850
 Red. masses --     5.1027                 4.4269                 6.7574
 Frc consts  --     3.2447                 2.8744                 4.5063
 IR Inten    --   363.4508               124.4808               251.0858
 Raman Activ --     1.9238                 9.4947                 4.3049

                    61                     62                     63
                     A                      A                      A
 Frequencies --  1070.7612              1075.2838              1077.4672
 Red. masses --     6.1848                 5.4697                 4.3859
 Frc consts  --     4.1779                 3.7261                 2.9999
 IR Inten    --    15.8132                17.2714                28.6475
 Raman Activ --     1.6285                 5.9966                12.0280

                    64                     65                     66
                     A                      A                      A
 Frequencies --  1098.8793              1107.8087              1113.1981
 Red. masses --     3.0743                 2.4331                 2.7996
 Frc consts  --     2.1872                 1.7593                 2.0441
 IR Inten    --    31.0133                51.6800                72.8327
 Raman Activ --    15.5908                 6.5474                 2.6356

                    67                     68                     69
                     A                      A                      A
 Frequencies --  1120.0198              1120.3557              1147.2031
 Red. masses --     2.7288                 3.7991                 2.9300
 Frc consts  --     2.0168                 2.8096                 2.2719
 IR Inten    --    33.2111                10.6209                33.4001
 Raman Activ --     1.6085                 4.4750                 3.6019

                    70                     71                     72
                     A                      A                      A
 Frequencies --  1149.9176              1156.0099              1161.0025
 Red. masses --     1.7914                 2.7680                 1.4559
 Frc consts  --     1.3957                 2.1794                 1.1563
 IR Inten    --     3.0116                50.9792                 0.6942
 Raman Activ --     4.5950                 6.9076                 1.1736

                    73                     74                     75
                     A                      A                      A
 Frequencies --  1166.3184              1178.0430              1195.6684
 Red. masses --     1.7172                 2.1628                 1.6803
 Frc consts  --     1.3762                 1.7684                 1.4153
 IR Inten    --     5.9573                 9.1755                23.8854
 Raman Activ --     1.9271                 2.6287                 3.3165

                    76                     77                     78
                     A                      A                      A
 Frequencies --  1205.2829              1206.8141              1230.6394
 Red. masses --     1.3267                 1.4164                 1.2190
 Frc consts  --     1.1356                 1.2154                 1.0877
 IR Inten    --    13.2181                 2.3376                14.1808
 Raman Activ --     0.9185                 1.2435                 1.5075

                    79                     80                     81
                     A                      A                      A
 Frequencies --  1246.6914              1249.1513              1257.7196
 Red. masses --     1.2084                 1.3271                 1.3063
 Frc consts  --     1.1066                 1.2201                 1.2175
 IR Inten    --     0.0839                 0.6518                17.2183
 Raman Activ --     1.8691                 2.8188                 0.9422

                    82                     83                     84
                     A                      A                      A
 Frequencies --  1276.0119              1282.7594              1289.7445
 Red. masses --     1.2293                 1.3851                 1.1890
 Frc consts  --     1.1793                 1.3428                 1.1653
 IR Inten    --     1.8973                45.6692                 1.9812
 Raman Activ --     5.4603                 2.0015                 1.7571

                    85                     86                     87
                     A                      A                      A
 Frequencies --  1290.6832              1293.4415              1303.1378
 Red. masses --     1.2918                 1.3023                 1.2760
 Frc consts  --     1.2679                 1.2837                 1.2766
 IR Inten    --     2.2068                22.9266                 4.6691
 Raman Activ --     2.4406                 1.7466                 1.8152

                    88                     89                     90
                     A                      A                      A
 Frequencies --  1311.4151              1318.1771              1336.7084
 Red. masses --     1.3080                 1.3525                 1.1708
 Frc consts  --     1.3254                 1.3846                 1.2325
 IR Inten    --    31.3796                25.2547                 4.1561
 Raman Activ --     7.3879                 4.4998                10.1970

                    91                     92                     93
                     A                      A                      A
 Frequencies --  1344.5466              1345.8560              1352.6966
 Red. masses --     1.1536                 1.2114                 1.1631
 Frc consts  --     1.2288                 1.2929                 1.2540
 IR Inten    --    36.7462                45.4659                19.7363
 Raman Activ --     1.2790                 5.3251                 1.6088

                    94                     95                     96
                     A                      A                      A
 Frequencies --  1360.4749              1362.2383              1375.0921
 Red. masses --     1.5294                 1.2265                 1.4764
 Frc consts  --     1.6678                 1.3409                 1.6448
 IR Inten    --     9.9373                20.6241                 7.5140
 Raman Activ --    10.5417                 1.6103                 6.7941

                    97                     98                     99
                     A                      A                      A
 Frequencies --  1383.0881              1387.0323              1388.7312
 Red. masses --     1.4041                 1.4447                 1.3172
 Frc consts  --     1.5826                 1.6376                 1.4967
 IR Inten    --     5.9069                 8.7997                 0.9821
 Raman Activ --     3.2938                 9.1395                 0.7568

                   100                    101                    102
                     A                      A                      A
 Frequencies --  1435.5205              1440.0450              1448.4115
 Red. masses --     1.3082                 1.3576                 1.3612
 Frc consts  --     1.5883                 1.6588                 1.6825
 IR Inten    --    70.6384                12.0704                40.1064
 Raman Activ --     0.4913                 2.6686                 0.7247

                   103                    104                    105
                     A                      A                      A
 Frequencies --  1455.4349              1458.7147              1461.8793
 Red. masses --     1.0924                 1.2154                 1.2642
 Frc consts  --     1.3634                 1.5237                 1.5918
 IR Inten    --     3.2671                26.9441                14.4744
 Raman Activ --     3.1140                 3.4093                 2.8460

                   106                    107                    108
                     A                      A                      A
 Frequencies --  1468.8398              1486.3443              3233.3854
 Red. masses --     1.3393                 1.2720                 1.0702
 Frc consts  --     1.7024                 1.6556                 6.5922
 IR Inten    --    31.7123                70.0807               898.5585
 Raman Activ --     1.2165                 3.7268               196.9175

                   109                    110                    111
                     A                      A                      A
 Frequencies --  3250.3717              3258.9961              3259.4751
 Red. masses --     1.0781                 1.0594                 1.0619
 Frc consts  --     6.7109                 6.6292                 6.6474
 IR Inten    --     7.1391                44.4361                23.1986
 Raman Activ --   119.0038                28.0974               212.4669

                   112                    113                    114
                     A                      A                      A
 Frequencies --  3261.8299              3262.7577              3269.3486
 Red. masses --     1.0767                 1.0800                 1.0816
 Frc consts  --     6.7496                 6.7741                 6.8112
 IR Inten    --    16.3640                34.7166                10.6700
 Raman Activ --     9.9567                43.0687               135.7610

                   115                    116                    117
                     A                      A                      A
 Frequencies --  3269.9198              3276.7100              3280.4449
 Red. masses --     1.0832                 1.0835                 1.0847
 Frc consts  --     6.8238                 6.8544                 6.8774
 IR Inten    --    11.5106                 2.4593                15.4438
 Raman Activ --    29.7980                61.3249                40.0132

                   118                    119                    120
                     A                      A                      A
 Frequencies --  3287.1410              3289.4790              3296.4501
 Red. masses --     1.0858                 1.0858                 1.0864
 Frc consts  --     6.9123                 6.9224                 6.9555
 IR Inten    --     3.5772               102.0568                89.7345
 Raman Activ --    49.1566                 8.0376                16.1024

                   121                    122                    123
                     A                      A                      A
 Frequencies --  3308.7034              3314.7149              3319.0830
 Red. masses --     1.0692                 1.1042                 1.1043
 Frc consts  --     6.8964                 7.1484                 7.1675
 IR Inten    --   406.7118                70.8326                42.6172
 Raman Activ --   171.3420                23.7578                29.5093

                   124                    125                    126
                     A                      A                      A
 Frequencies --  3356.8472              3358.5193              3362.8616
 Red. masses --     1.0682                 1.0653                 1.0655
 Frc consts  --     7.0920                 7.0797                 7.0992
 IR Inten    --    53.8860                39.6339                24.2423
 Raman Activ --   146.7286                89.2513               121.9497

                   127                    128                    129
                     A                      A                      A
 Frequencies --  3363.5054              3874.0067              3878.2891
 Red. masses --     1.0718                 1.0677                 1.0676
 Frc consts  --     7.1442                 9.4407                 9.4614
 IR Inten    --    49.0733                80.7632                90.1358
 Raman Activ --   131.7388                84.2982               106.9719

 - Thermochemistry -
 -------------------
 Temperature   298.150 Kelvin.  Pressure   1.00000 Atm.
 Atom     1 has atomic number  8 and mass  15.99491

 Molecular mass:   342.11621 amu.
 Principal axes and moments of inertia in atomic units:
                           1         2         3
     Eigenvalues --  4619.77721********************
           X            0.99997  -0.00771  -0.00042
           Y            0.00771   0.99997  -0.00017
           Z            0.00042   0.00016   1.00000
 This molecule is an asymmetric top.
 Rotational symmetry number  1.
 Warning -- assumption of classical behavior for rotation
           may cause significant error
 Rotational temperatures (Kelvin)      0.01875     0.00696     0.00523
 Rotational constants (GHZ):           0.39066     0.14507     0.10903
    7 imaginary frequencies ignored.
 Zero-point vibrational energy     970941.9 (Joules/Mol)
                                  232.06068 (Kcal/Mol)
 Warning -- explicit consideration of  33 degrees of freedom as
           vibrations may cause significant error
 Vibrational temperatures:     52.17    62.99   100.65   130.48   170.41
          (Kelvin)            196.31   222.04   249.51   276.79   332.77
                              338.88   386.59   412.42   423.11   443.92
                              456.66   466.18   478.98   515.82   530.47
                              570.11   588.23   609.76   620.25   660.05
                              688.55   713.03   747.77   794.80   811.89
                              843.24   867.63   887.86   955.05   982.82
                             1034.32  1043.50  1078.90  1138.49  1169.34
                             1205.32  1228.90  1326.99  1361.97  1396.08
                             1406.61  1425.88  1438.38  1449.67  1471.26
                             1494.70  1510.42  1530.69  1540.58  1547.09
                             1550.23  1581.04  1593.89  1601.64  1611.46
                             1611.94  1650.57  1654.47  1663.24  1670.42
                             1678.07  1694.94  1720.30  1734.13  1736.33
                             1770.61  1793.71  1797.25  1809.58  1835.89
                             1845.60  1855.65  1857.00  1860.97  1874.92
                             1886.83  1896.56  1923.22  1934.50  1936.38
                             1946.23  1957.42  1959.95  1978.45  1989.95
                             1995.63  1998.07  2065.39  2071.90  2083.94
                             2094.04  2098.76  2103.32  2113.33  2138.52
                             4652.11  4676.55  4688.96  4689.65  4693.04
                             4694.37  4703.86  4704.68  4714.45  4719.82
                             4729.46  4732.82  4742.85  4760.48  4769.13
                             4775.41  4829.75  4832.15  4838.40  4839.33
                             5573.82  5579.99

 Zero-point correction=                           0.369812 (Hartree/Particle)
 Thermal correction to Energy=                    0.388563
 Thermal correction to Enthalpy=                  0.389507
 Thermal correction to Gibbs Free Energy=         0.323215
 Sum of electronic and zero-point Energies=          -1297.647223
 Sum of electronic and thermal Energies=             -1297.628472
 Sum of electronic and thermal Enthalpies=           -1297.627528
 Sum of electronic and thermal Free Energies=        -1297.693820

                     E (Thermal)             CV                S
                      KCal/Mol        Cal/Mol-Kelvin    Cal/Mol-Kelvin
 Total                  243.827             76.606            139.523
 Electronic               0.000              0.000              0.000
 Translational            0.889              2.981             43.384
 Rotational               0.889              2.981             35.208
 Vibrational            242.049             70.644             60.931
 Vibration     1          0.594              1.982              5.454
 Vibration     2          0.595              1.980              5.080
 Vibration     3          0.598              1.968              4.155
 Vibration     4          0.602              1.956              3.645
 Vibration     5          0.609              1.934              3.126
 Vibration     6          0.614              1.917              2.853
 Vibration     7          0.620              1.898              2.618
 Vibration     8          0.627              1.875              2.398
 Vibration     9          0.634              1.850              2.205
 Vibration    10          0.653              1.793              1.869
 Vibration    11          0.655              1.786              1.836
 Vibration    12          0.673              1.731              1.605
 Vibration    13          0.684              1.699              1.494
 Vibration    14          0.689              1.685              1.450
 Vibration    15          0.698              1.657              1.370
 Vibration    16          0.704              1.640              1.324
 Vibration    17          0.709              1.627              1.290
 Vibration    18          0.715              1.610              1.246
 Vibration    19          0.733              1.558              1.129
 Vibration    20          0.741              1.537              1.085
 Vibration    21          0.763              1.478              0.977
 Vibration    22          0.773              1.451              0.931
 Vibration    23          0.786              1.418              0.879
 Vibration    24          0.792              1.403              0.855
 Vibration    25          0.817              1.342              0.770
 Vibration    26          0.835              1.298              0.714
 Vibration    27          0.851              1.260              0.669
 Vibration    28          0.875              1.206              0.611
 Vibration    29          0.908              1.134              0.539
 Vibration    30          0.920              1.109              0.515
 Vibration    31          0.943              1.061              0.474
 Vibration    32          0.961              1.025              0.444
 Vibration    33          0.977              0.996              0.421

 Normal termination of Gaussian 09 at Fri Feb 12 09:12:53 2016.
