 Gaussian 09, Revision B.01,
 Gaussian 09:  EM64L-G09RevB.01 12-Aug-2010

 -------------------------------------------------
 # freq=raman b3lyp/6-31+g(2d,p) geom=connectivity
 -------------------------------------------------

 -----------------
 350 7102/7102.com
 -----------------
 Symbolic Z-matrix:
 Charge =  0 Multiplicity = 1

                         Standard orientation:
 ---------------------------------------------------------------------
 Center     Atomic      Atomic             Coordinates (Angstroms)
 Number     Number       Type             X           Y           Z
 ---------------------------------------------------------------------
      1          8           0       -4.988022   -0.396976    0.577525
      2          6           0       -3.751662   -0.104595   -0.089352
      3          6           0       -3.325925    1.285653    0.353002
      4          8           0       -4.233862    2.234152   -0.228191
      5          1           0       -5.113641    1.910021    0.118894
      6          6           0       -1.895869    1.506822   -0.112995
      7          8           0       -1.344274    2.673924    0.513987
      8          1           0       -0.445593    2.917085    0.147492
      9          6           0       -3.057862   -2.533551   -0.428303
     10          8           0       -4.091486   -3.295517    0.212544
     11          1           0       -3.768652   -4.225263    0.386910
     12          6           0       -2.713597   -1.182316    0.175553
     13          8           0       -1.417353   -0.872093   -0.358595
     14          6           0       -0.879556    0.389754    0.060758
     15          8           0        0.350064    0.570302   -0.656365
     16          6           0        1.525785    0.217785    0.086316
     17          6           0        2.058072   -1.147315   -0.317448
     18          8           0        0.973509   -2.060171   -0.096547
     19          1           0        0.047895   -1.718889   -0.261090
     20          6           0        3.393536   -1.536075    0.296900
     21          8           0        3.903027   -2.768497   -0.232189
     22          1           0        4.766269   -2.893653    0.254782
     23          6           0        2.310923    2.688722   -0.034365
     24          8           0        1.065772    3.360922   -0.270300
     25          1           0        1.314458    4.329116   -0.304867
     26          6           0        2.578721    1.225090   -0.347781
     27          8           0        3.885635    0.912636    0.156011
     28          6           0        4.373237   -0.422741   -0.035102
     29          8           0        5.542570   -0.588251    0.780249
     30          1           0        6.286565   -0.835605    0.226274
     31          1           0        3.053288    3.245815   -0.566757
     32          1           0        2.520265    2.811120    1.007794
     33          1           0        2.638576    1.152027   -1.413604
     34          1           0        4.661862   -0.528192   -1.060029
     35          1           0        3.289674   -1.617380    1.358739
     36          1           0        2.215370   -1.112178   -1.375239
     37          1           0        1.350753    0.271432    1.140539
     38          1           0       -5.634661   -0.698241   -0.064890
     39          1           0       -2.167622   -3.127152   -0.431466
     40          1           0       -3.351835   -2.372732   -1.444481
     41          1           0       -2.620320   -1.302093    1.234729
     42          1           0       -3.939055   -0.076099   -1.142429
     43          1           0       -3.370641    1.352574    1.419971
     44          1           0       -1.946972    1.712280   -1.161840
     45          1           0       -0.645435    0.319173    1.102442
 ---------------------------------------------------------------------

 SCF Done:  E(RB3LYP) =  -1297.98917374     A.U. after   13 cycles

 The electronic state is 1-A.
 Alpha  occ. eigenvalues --  -19.19320 -19.18688 -19.18623 -19.18377 -19.17975
 Alpha  occ. eigenvalues --  -19.17020 -19.16860 -19.16355 -19.15525 -19.12605
 Alpha  occ. eigenvalues --  -19.12443 -10.30820 -10.30421 -10.26179 -10.25644
 Alpha  occ. eigenvalues --  -10.25448 -10.25416 -10.25177 -10.24948 -10.24365
 Alpha  occ. eigenvalues --  -10.24303 -10.24246 -10.24022  -1.10210  -1.08974
 Alpha  occ. eigenvalues --   -1.06186  -1.05553  -1.04520  -1.03987  -1.03074
 Alpha  occ. eigenvalues --   -1.02687  -1.02150  -0.99957  -0.99449  -0.82205
 Alpha  occ. eigenvalues --   -0.80168  -0.79641  -0.78239  -0.72086  -0.69907
 Alpha  occ. eigenvalues --   -0.67529  -0.65114  -0.63474  -0.63011  -0.61313
 Alpha  occ. eigenvalues --   -0.59739  -0.56562  -0.56114  -0.55287  -0.55026
 Alpha  occ. eigenvalues --   -0.54740  -0.53287  -0.52628  -0.51866  -0.51449
 Alpha  occ. eigenvalues --   -0.51116  -0.50106  -0.49422  -0.48472  -0.47135
 Alpha  occ. eigenvalues --   -0.46513  -0.45299  -0.44482  -0.43597  -0.43395
 Alpha  occ. eigenvalues --   -0.42914  -0.42198  -0.41406  -0.40148  -0.39529
 Alpha  occ. eigenvalues --   -0.38978  -0.38128  -0.37762  -0.36347  -0.35874
 Alpha  occ. eigenvalues --   -0.35482  -0.35153  -0.34779  -0.33454  -0.33124
 Alpha  occ. eigenvalues --   -0.32670  -0.31383  -0.30758  -0.30141  -0.30023
 Alpha  occ. eigenvalues --   -0.29537  -0.29182  -0.28332  -0.27688  -0.26282
 Alpha  occ. eigenvalues --   -0.25979
 Alpha virt. eigenvalues --   -0.02324  -0.01992  -0.01578  -0.00080   0.00389
 Alpha virt. eigenvalues --    0.01201   0.01909   0.02374   0.02926   0.03542
 Alpha virt. eigenvalues --    0.03726   0.04351   0.04891   0.05359   0.05473

 Mulliken atomic charges:
              1
     1  O   -0.538204
     2  C   -0.134002
     3  C    0.293793
     4  O   -0.537119
     5  H    0.343027
     6  C   -0.150226
     7  O   -0.608827
     8  H    0.438694
     9  C   -0.245853
    10  O   -0.531943
    11  H    0.338231
    12  C    0.297762
    13  O   -0.281048
    14  C    0.105271
    15  O   -0.198552
    16  C    0.209734
    17  C    0.226764
    18  O   -0.631898
    19  H    0.416603
    20  C    0.063350
    21  O   -0.522592
    22  H    0.332133
    23  C   -0.328676
    24  O   -0.562248
    25  H    0.363054
    26  C   -0.035908
    27  O   -0.276897
    28  C    0.192600
    29  O   -0.538853
    30  H    0.338668
    31  H    0.145276
    32  H    0.158833
    33  H    0.116191
    34  H    0.127619
    35  H    0.132997
    36  H    0.115401
    37  H    0.117365
    38  H    0.341096
    39  H    0.145092
    40  H    0.142646
    41  H    0.114335
    42  H    0.125129
    43  H    0.133830
    44  H    0.130493
    45  H    0.116855
 Sum of Mulliken atomic charges =   0.00000

 Dipole moment (field-independent basis, Debye):
    X=              2.7131    Y=              0.0305    Z=             -1.4183  Tot=              3.0616
 Quadrupole moment (field-independent basis, Debye-Ang):
   XX=           -118.3038   YY=           -135.2336   ZZ=           -140.3280
   XY=             12.9879   XZ=             -0.5721   YZ=             -3.6724

  Exact polarizability: 235.262  -2.347 196.792   0.238  -0.357 143.710
 Approx polarizability: 276.043  -2.561 255.471   0.078  -1.183 238.502

 ******    7 imaginary frequencies (negative Signs) ******

                     1                      2                      3
                     A                      A                      A
 Frequencies --  -320.4513              -249.6793              -193.2461
 Red. masses --     1.7137                 1.6926                 1.2665
 Frc consts  --     0.1037                 0.0622                 0.0279
 IR Inten    --     0.9920                 9.9535               110.4379
 Raman Activ --     0.0448                 0.1631                 0.8079

                     4                      5                      6
                     A                      A                      A
 Frequencies --  -134.8832               -79.8799               -59.8032
 Red. masses --     1.3985                 7.6366                 6.7233
 Frc consts  --     0.0150                 0.0287                 0.0142
 IR Inten    --    77.7039                 2.9572                 0.7188
 Raman Activ --     0.4880                 0.0338                 0.0714

                     7                      8                      9
                     A                      A                      A
 Frequencies --   -38.0987                33.0843                48.3162
 Red. masses --     6.4161                 5.4947                 7.0576
 Frc consts  --     0.0055                 0.0035                 0.0097
 IR Inten    --     0.5191                 3.9487                 2.0145
 Raman Activ --     0.0160                 0.0428                 0.0705

                    10                     11                     12
                     A                      A                      A
 Frequencies --    90.9496                93.3662                98.5181
 Red. masses --     5.8339                 3.9720                 5.5368
 Frc consts  --     0.0284                 0.0204                 0.0317
 IR Inten    --     8.9685                17.5154                 5.5726
 Raman Activ --     0.1771                 0.2857                 0.1219

                    13                     14                     15
                     A                      A                      A
 Frequencies --   155.7811               171.1059               179.5045
 Red. masses --     5.8407                 5.8697                 7.8412
 Frc consts  --     0.0835                 0.1012                 0.1489
 IR Inten    --     4.4408                 1.1909                 0.2610
 Raman Activ --     0.1974                 0.4294                 1.2375

                    16                     17                     18
                     A                      A                      A
 Frequencies --   216.1284               232.1307               255.3696
 Red. masses --     7.2830                 5.6351                 5.0173
 Frc consts  --     0.2004                 0.1789                 0.1928
 IR Inten    --     0.6765                 0.8714                20.9618
 Raman Activ --     3.2697                 0.0786                 0.2066

                    19                     20                     21
                     A                      A                      A
 Frequencies --   264.1103               290.4054               307.0692
 Red. masses --     4.8674                 4.3684                 4.6130
 Frc consts  --     0.2000                 0.2171                 0.2563
 IR Inten    --     1.7993                 4.3662                 0.4399
 Raman Activ --     0.0779                 0.2191                 2.4194

                    22                     23                     24
                     A                      A                      A
 Frequencies --   309.4931               319.4506               329.1094
 Red. masses --     6.0462                 5.4089                 5.4868
 Frc consts  --     0.3412                 0.3252                 0.3501
 IR Inten    --     8.8839                 4.0987                 9.4225
 Raman Activ --     1.6640                 2.5122                 1.8243

                    25                     26                     27
                     A                      A                      A
 Frequencies --   349.9249               365.9601               385.1041
 Red. masses --     6.7954                 4.8054                 6.4528
 Frc consts  --     0.4902                 0.3792                 0.5638
 IR Inten    --     6.3291                 3.6541                 0.7014
 Raman Activ --     2.6311                 0.3443                 0.5101

                    28                     29                     30
                     A                      A                      A
 Frequencies --   407.9177               415.7023               431.9914
 Red. masses --     4.4999                 6.5211                 4.8415
 Frc consts  --     0.4412                 0.6640                 0.5323
 IR Inten    --    12.2841                 2.2236                 1.9050
 Raman Activ --     3.4431                 6.6595                 1.5313

                    31                     32                     33
                     A                      A                      A
 Frequencies --   448.2480               471.3259               485.9497
 Red. masses --     5.7990                 4.2028                 3.5392
 Frc consts  --     0.6865                 0.5501                 0.4924
 IR Inten    --    10.7214                 2.8028                15.0547
 Raman Activ --     1.9397                 2.4227                 0.7849

                    34                     35                     36
                     A                      A                      A
 Frequencies --   508.4725               525.8030               566.8530
 Red. masses --     4.7822                 3.0950                 4.1529
 Frc consts  --     0.7285                 0.5041                 0.7862
 IR Inten    --     3.8266                 7.5315                17.5064
 Raman Activ --     3.5739                 4.4094                 1.3428

                    37                     38                     39
                     A                      A                      A
 Frequencies --   586.0043               592.6112               604.7050
 Red. masses --     3.2653                 4.5873                 5.3666
 Frc consts  --     0.6607                 0.9492                 1.1562
 IR Inten    --    21.2934                11.3226                32.3150
 Raman Activ --     0.3216                 1.4122                 0.5063

                    40                     41                     42
                     A                      A                      A
 Frequencies --   635.1716               664.7333               682.9897
 Red. masses --     4.0807                 1.3571                 2.9340
 Frc consts  --     0.9700                 0.3533                 0.8064
 IR Inten    --    27.3305                77.9301                16.6323
 Raman Activ --     1.3805                 0.8522                 1.2117

                    43                     44                     45
                     A                      A                      A
 Frequencies --   710.4347               745.8142               756.8409
 Red. masses --     1.0836                 1.0727                 1.0929
 Frc consts  --     0.3222                 0.3515                 0.3688
 IR Inten    --   105.7615                94.1073                75.6585
 Raman Activ --     1.7967                 0.7958                 1.5178

                    46                     47                     48
                     A                      A                      A
 Frequencies --   767.6626               847.8492               853.5125
 Red. masses --     1.0918                 1.6731                 1.4863
 Frc consts  --     0.3791                 0.7086                 0.6379
 IR Inten    --    97.4436                 7.7410                21.0507
 Raman Activ --     1.4537                 0.9302                 0.8713

                    49                     50                     51
                     A                      A                      A
 Frequencies --   881.0852               926.0463               948.7272
 Red. masses --     1.2443                 5.7059                 5.8217
 Frc consts  --     0.5691                 2.8829                 3.0873
 IR Inten    --    29.3316               157.5846                26.7366
 Raman Activ --     0.7440                 2.4738                 0.5771

                    52                     53                     54
                     A                      A                      A
 Frequencies --   965.3604               989.3825               993.9003
 Red. masses --     5.9937                 7.1959                 5.1671
 Frc consts  --     3.2909                 4.1502                 3.0073
 IR Inten    --    67.2706               308.5502                13.9935
 Raman Activ --     1.7924                 0.8193                 1.0138

                    55                     56                     57
                     A                      A                      A
 Frequencies --   995.3245              1013.6482              1023.3014
 Red. masses --     6.7729                 6.3254                 7.0053
 Frc consts  --     3.9532                 3.8292                 4.3220
 IR Inten    --   297.9218               109.3073               147.2237
 Raman Activ --     2.1852                 2.8617                 3.4617

                    58                     59                     60
                     A                      A                      A
 Frequencies --  1034.5965              1048.1468              1061.5002
 Red. masses --     5.9412                 5.4102                 5.2841
 Frc consts  --     3.7468                 3.5019                 3.5080
 IR Inten    --   324.7699                68.9358                65.3312
 Raman Activ --     2.5257                 5.9792                 2.3820

                    61                     62                     63
                     A                      A                      A
 Frequencies --  1063.0450              1071.1515              1080.4119
 Red. masses --     4.2641                 4.7480                 3.8921
 Frc consts  --     2.8391                 3.2097                 2.6768
 IR Inten    --    78.9294                24.9287                26.7484
 Raman Activ --     8.4989                 4.3258                11.6718

                    64                     65                     66
                     A                      A                      A
 Frequencies --  1090.6421              1104.2292              1106.1742
 Red. masses --     2.8970                 3.4105                 2.6354
 Frc consts  --     2.0303                 2.4501                 1.9000
 IR Inten    --    16.7462                31.4879                 1.4441
 Raman Activ --    17.9530                 5.7099                 2.4765

                    67                     68                     69
                     A                      A                      A
 Frequencies --  1111.3826              1126.4754              1129.6402
 Red. masses --     2.5372                 3.0432                 2.9242
 Frc consts  --     1.8464                 2.2752                 2.1985
 IR Inten    --    87.5338                 5.9236                13.4419
 Raman Activ --     4.2827                 4.4483                 2.3294

                    70                     71                     72
                     A                      A                      A
 Frequencies --  1151.0036              1157.7385              1165.2284
 Red. masses --     2.7466                 1.8846                 1.9191
 Frc consts  --     2.1438                 1.4883                 1.5352
 IR Inten    --    36.7968                 4.7164                 3.2969
 Raman Activ --     2.5606                 2.5487                 3.7174

                    73                     74                     75
                     A                      A                      A
 Frequencies --  1172.9592              1185.4186              1196.2748
 Red. masses --     1.4369                 2.0258                 1.8584
 Frc consts  --     1.1647                 1.6772                 1.5669
 IR Inten    --     3.5226                 7.4358                29.7470
 Raman Activ --     1.8287                 1.7218                 3.1419

                    76                     77                     78
                     A                      A                      A
 Frequencies --  1205.4880              1216.5234              1236.0211
 Red. masses --     1.2451                 1.4396                 1.2318
 Frc consts  --     1.0660                 1.2553                 1.1088
 IR Inten    --    23.2705                 7.5055                11.9244
 Raman Activ --     3.3709                 2.1292                 0.5503

                    79                     80                     81
                     A                      A                      A
 Frequencies --  1255.7947              1257.7037              1267.0572
 Red. masses --     1.2010                 1.3576                 1.2646
 Frc consts  --     1.1159                 1.2653                 1.1962
 IR Inten    --     7.1757                 9.2673                21.5443
 Raman Activ --     0.3451                 1.1137                 0.6152

                    82                     83                     84
                     A                      A                      A
 Frequencies --  1273.8686              1285.2672              1293.4791
 Red. masses --     1.1860                 1.3689                 1.2523
 Frc consts  --     1.1339                 1.3324                 1.2345
 IR Inten    --     8.0947                16.8977                14.7989
 Raman Activ --     1.9460                 0.7274                 4.0855

                    85                     86                     87
                     A                      A                      A
 Frequencies --  1296.6015              1300.6061              1314.0737
 Red. masses --     1.2627                 1.3123                 1.3303
 Frc consts  --     1.2507                 1.3079                 1.3535
 IR Inten    --    11.8766                28.1172                 4.4013
 Raman Activ --     1.0152                 4.2526                 3.5129

                    88                     89                     90
                     A                      A                      A
 Frequencies --  1316.9207              1329.9932              1333.1164
 Red. masses --     1.2660                 1.2098                 1.3757
 Frc consts  --     1.2936                 1.2609                 1.4405
 IR Inten    --     2.5131                 6.7571                32.5004
 Raman Activ --     1.9146                13.9493                 6.4600

                    91                     92                     93
                     A                      A                      A
 Frequencies --  1337.6714              1349.0516              1358.9264
 Red. masses --     1.2656                 1.1607                 1.1732
 Frc consts  --     1.3343                 1.2446                 1.2764
 IR Inten    --    24.8378                23.1459                47.4313
 Raman Activ --     5.4997                 1.8996                 2.3955

                    94                     95                     96
                     A                      A                      A
 Frequencies --  1372.3140              1376.2238              1385.7060
 Red. masses --     1.5550                 1.2210                 1.3183
 Frc consts  --     1.7254                 1.3625                 1.4915
 IR Inten    --     1.1899                15.7330                19.6174
 Raman Activ --     4.1743                 5.0624                 3.0180

                    97                     98                     99
                     A                      A                      A
 Frequencies --  1391.6138              1400.6733              1415.7550
 Red. masses --     1.3872                 1.4060                 1.3640
 Frc consts  --     1.5828                 1.6252                 1.6108
 IR Inten    --     2.0733                16.5098                 2.0537
 Raman Activ --     5.6608                 5.7184                 5.8824

                   100                    101                    102
                     A                      A                      A
 Frequencies --  1442.2987              1451.8740              1457.2741
 Red. masses --     1.2711                 1.2366                 1.2845
 Frc consts  --     1.5579                 1.5359                 1.6071
 IR Inten    --    75.3954                 7.2396                28.9272
 Raman Activ --     2.8353                 1.7022                 1.9485

                   103                    104                    105
                     A                      A                      A
 Frequencies --  1462.5774              1467.1766              1474.9468
 Red. masses --     1.1709                 1.3205                 1.0845
 Frc consts  --     1.4757                 1.6748                 1.3901
 IR Inten    --    28.6261                19.7311                 6.7328
 Raman Activ --     2.1999                 4.4486                 4.9586

                   106                    107                    108
                     A                      A                      A
 Frequencies --  1478.3796              1507.1364              3222.6358
 Red. masses --     1.4092                 1.3014                 1.0705
 Frc consts  --     1.8146                 1.7416                 6.5503
 IR Inten    --    46.7079                29.5980               174.6789
 Raman Activ --     1.0730                 0.7767               307.1237

                   109                    110                    111
                     A                      A                      A
 Frequencies --  3238.7059              3258.6884              3260.0188
 Red. masses --     1.0704                 1.0579                 1.0675
 Frc consts  --     6.6152                 6.6187                 6.6843
 IR Inten    --  1918.6702                24.5737                 6.5923
 Raman Activ --    34.9230                89.8483               138.9644

                   112                    113                    114
                     A                      A                      A
 Frequencies --  3261.4230              3270.0574              3271.0062
 Red. masses --     1.0740                 1.0819                 1.0824
 Frc consts  --     6.7310                 6.8160                 6.8236
 IR Inten    --    27.9553                75.6474                 7.7369
 Raman Activ --    38.9499                15.9690                89.5343

                   115                    116                    117
                     A                      A                      A
 Frequencies --  3275.6136              3277.3868              3281.6036
 Red. masses --     1.0824                 1.0837                 1.0843
 Frc consts  --     6.8426                 6.8583                 6.8797
 IR Inten    --    41.5658                15.2491                12.2445
 Raman Activ --   200.6002               137.4777                22.8097

                   118                    119                    120
                     A                      A                      A
 Frequencies --  3284.6199              3293.5217              3299.6411
 Red. masses --     1.0852                 1.0856                 1.0868
 Frc consts  --     6.8980                 6.9379                 6.9714
 IR Inten    --     2.5196                15.2621                21.9044
 Raman Activ --     6.9971                 8.2106                 8.7159

                   121                    122                    123
                     A                      A                      A
 Frequencies --  3302.1033              3310.1507              3317.8461
 Red. masses --     1.0885                 1.1020                 1.1056
 Frc consts  --     6.9931                 7.1140                 7.1709
 IR Inten    --    67.8547                71.0498                48.3547
 Raman Activ --    33.9982                41.1965                28.3499

                   124                    125                    126
                     A                      A                      A
 Frequencies --  3369.7807              3370.7802              3377.9631
 Red. masses --     1.0646                 1.0669                 1.0699
 Frc consts  --     7.1227                 7.1420                 7.1931
 IR Inten    --    38.0184                68.0335                45.1198
 Raman Activ --    93.0758               144.3281               122.5478

                   127                    128                    129
                     A                      A                      A
 Frequencies --  3381.1020              3887.7967              3889.9751
 Red. masses --     1.0651                 1.0675                 1.0675
 Frc consts  --     7.1739                 9.5067                 9.5174
 IR Inten    --    33.3551                72.3448                79.0577
 Raman Activ --   121.1795                85.0008               113.7408

 - Thermochemistry -
 -------------------
 Temperature   298.150 Kelvin.  Pressure   1.00000 Atm.
 Atom     1 has atomic number  8 and mass  15.99491

 Molecular mass:   342.11621 amu.
 Principal axes and moments of inertia in atomic units:
                           1         2         3
     Eigenvalues --  4430.04031********************
           X            0.99998   0.00700  -0.00018
           Y           -0.00700   0.99998   0.00033
           Z            0.00019  -0.00033   1.00000
 This molecule is an asymmetric top.
 Rotational symmetry number  1.
 Warning -- assumption of classical behavior for rotation
           may cause significant error
 Rotational temperatures (Kelvin)      0.01955     0.00696     0.00527
 Rotational constants (GHZ):           0.40739     0.14503     0.10976
    7 imaginary frequencies ignored.
 Zero-point vibrational energy     975033.1 (Joules/Mol)
                                  233.03850 (Kcal/Mol)
 Warning -- explicit consideration of  32 degrees of freedom as
           vibrations may cause significant error
 Vibrational temperatures:     47.60    69.52   130.86   134.33   141.75
          (Kelvin)            224.13   246.18   258.27   310.96   333.98
                              367.42   380.00   417.83   441.80   445.29
                              459.62   473.51   503.46   526.53   554.08
                              586.90   598.10   621.54   644.93   678.13
                              699.17   731.58   756.51   815.57   843.13
                              852.63   870.03   913.87   956.40   982.67
                             1022.16  1073.06  1088.92  1104.49  1219.86
                             1228.01  1267.68  1332.37  1365.01  1388.94
                             1423.50  1430.00  1432.05  1458.41  1472.30
                             1488.55  1508.05  1527.26  1529.48  1541.15
                             1554.47  1569.19  1588.74  1591.54  1599.03
                             1620.74  1625.30  1656.04  1665.73  1676.50
                             1687.62  1705.55  1721.17  1734.43  1750.30
                             1778.36  1806.81  1809.55  1823.01  1832.81
                             1849.21  1861.03  1865.52  1871.28  1890.66
                             1894.75  1913.56  1918.05  1924.61  1940.98
                             1955.19  1974.45  1980.08  1993.72  2002.22
                             2015.25  2036.95  2075.14  2088.92  2096.69
                             2104.32  2110.94  2122.12  2127.06  2168.43
                             4636.65  4659.77  4688.52  4690.43  4692.45
                             4704.88  4706.24  4712.87  4715.42  4721.49
                             4725.83  4738.64  4747.44  4750.98  4762.56
                             4773.63  4848.36  4849.79  4860.13  4864.65
                             5593.67  5596.80

 Zero-point correction=                           0.371370 (Hartree/Particle)
 Thermal correction to Energy=                    0.389769
 Thermal correction to Enthalpy=                  0.390714
 Thermal correction to Gibbs Free Energy=         0.325309
 Sum of electronic and zero-point Energies=          -1297.617803
 Sum of electronic and thermal Energies=             -1297.599404
 Sum of electronic and thermal Enthalpies=           -1297.598460
 Sum of electronic and thermal Free Energies=        -1297.663865

                     E (Thermal)             CV                S
                      KCal/Mol        Cal/Mol-Kelvin    Cal/Mol-Kelvin
 Total                  244.584             75.847            137.655
 Electronic               0.000              0.000              0.000
 Translational            0.889              2.981             43.384
 Rotational               0.889              2.981             35.160
 Vibrational            242.807             69.886             59.111
 Vibration     1          0.594              1.983              5.635
 Vibration     2          0.595              1.978              4.885
 Vibration     3          0.602              1.956              3.640
 Vibration     4          0.602              1.954              3.588
 Vibration     5          0.604              1.950              3.483
 Vibration     6          0.620              1.896              2.600
 Vibration     7          0.626              1.878              2.423
 Vibration     8          0.629              1.867              2.334
 Vibration     9          0.645              1.816              1.991
 Vibration    10          0.653              1.792              1.862
 Vibration    11          0.666              1.754              1.693
 Vibration    12          0.671              1.739              1.634
 Vibration    13          0.686              1.692              1.472
 Vibration    14          0.697              1.660              1.378
 Vibration    15          0.699              1.656              1.365
 Vibration    16          0.705              1.636              1.313
 Vibration    17          0.712              1.617              1.264
 Vibration    18          0.727              1.575              1.167
 Vibration    19          0.739              1.542              1.097
 Vibration    20          0.754              1.502              1.019
 Vibration    21          0.772              1.453              0.934
 Vibration    22          0.779              1.436              0.907
 Vibration    23          0.793              1.401              0.852
 Vibration    24          0.807              1.365              0.801
 Vibration    25          0.828              1.314              0.734
 Vibration    26          0.842              1.281              0.694
 Vibration    27          0.864              1.231              0.637
 Vibration    28          0.881              1.193              0.597
 Vibration    29          0.923              1.103              0.510
 Vibration    30          0.943              1.062              0.474
 Vibration    31          0.950              1.048              0.463
 Vibration    32          0.963              1.022              0.442

 Normal termination of Gaussian 09 at Fri Mar 25 20:49:03 2016.
