 Gaussian 09, Revision B.01,
 Gaussian 09:  EM64L-G09RevB.01 12-Aug-2010

 --------------------------------------------------
 # freq=raman b3lyp/6-31+g(2df,p) geom=connectivity
 --------------------------------------------------

 ------------
 400 7000.com
 ------------
 Symbolic Z-matrix:
 Charge =  0 Multiplicity = 1

                         Standard orientation:
 ---------------------------------------------------------------------
 Center     Atomic      Atomic             Coordinates (Angstroms)
 Number     Number       Type             X           Y           Z
 ---------------------------------------------------------------------
      1          8           0       -5.016818   -0.452028    0.324353
      2          6           0       -3.680009   -0.222802   -0.143284
      3          6           0       -3.209733    1.160422    0.272594
      4          8           0       -4.163884    2.229932    0.197807
      5          1           0       -5.092298    1.889738    0.351065
      6          6           0       -1.860285    1.657859   -0.220039
      7          8           0       -1.540303    2.876683    0.465621
      8          1           0       -0.574624    3.057686    0.281646
      9          6           0       -2.956166   -2.582030   -0.203922
     10          8           0       -4.188647   -3.129525    0.288562
     11          1           0       -4.101881   -4.119195    0.405290
     12          6           0       -2.566855   -1.182861    0.242539
     13          8           0       -1.310597   -0.794275   -0.331752
     14          6           0       -0.876600    0.525176    0.028719
     15          8           0        0.277767    0.604494   -0.820209
     16          6           0        1.510019    0.285104   -0.157339
     17          6           0        1.970088   -1.136787   -0.431820
     18          8           0        0.993781   -2.154429   -0.166847
     19          1           0        0.156680   -1.692489   -0.459756
     20          6           0        3.267200   -1.569721    0.232094
     21          8           0        3.841850   -2.705830   -0.428637
     22          1           0        4.688903   -3.036147   -0.011771
     23          6           0        2.439530    2.567971    0.002540
     24          8           0        1.333586    3.316937   -0.523169
     25          1           0        1.309396    4.259047   -0.188314
     26          6           0        2.728002    1.145947   -0.449627
     27          8           0        3.755659    0.827690    0.499407
     28          6           0        4.270044   -0.439075    0.062719
     29          8           0        5.246804   -0.669351    1.089250
     30          1           0        6.120128   -0.721588    0.694059
     31          1           0        4.702461   -0.401136   -0.915278
     32          1           0        3.108216   -1.778216    1.269473
     33          1           0        2.155275   -1.177700   -1.484878
     34          1           0        1.322043    0.357932    0.893499
     35          1           0        3.060772    1.087205   -1.464868
     36          1           0        3.321922    3.140049   -0.194970
     37          1           0        2.313425    2.534964    1.064571
     38          1           0       -5.620567   -0.456508   -0.422016
     39          1           0       -2.168187   -3.245602    0.085318
     40          1           0       -3.007014   -2.578870   -1.272708
     41          1           0       -2.469003   -1.180177    1.308052
     42          1           0       -3.728554   -0.226486   -1.212175
     43          1           0       -3.054816    1.045418    1.325055
     44          1           0       -1.917715    1.849905   -1.271095
     45          1           0       -0.569548    0.534554    1.053673
 ---------------------------------------------------------------------

 SCF Done:  E(RB3LYP) =  -1297.99082683     A.U. after   13 cycles

 The electronic state is 1-A.
 Alpha  occ. eigenvalues --  -19.19565 -19.18394 -19.18167 -19.17640 -19.17216
 Alpha  occ. eigenvalues --  -19.17144 -19.16205 -19.16061 -19.15415 -19.14662
 Alpha  occ. eigenvalues --  -19.13204 -10.30999 -10.29962 -10.26145 -10.25907
 Alpha  occ. eigenvalues --  -10.25441 -10.25378 -10.24986 -10.24584 -10.24500
 Alpha  occ. eigenvalues --  -10.24117 -10.23747 -10.23467  -1.10783  -1.09658
 Alpha  occ. eigenvalues --   -1.05217  -1.04364  -1.03686  -1.03256  -1.02733
 Alpha  occ. eigenvalues --   -1.02362  -1.02208  -1.00351  -1.00206  -0.82197
 Alpha  occ. eigenvalues --   -0.80909  -0.78937  -0.78609  -0.71629  -0.70032
 Alpha  occ. eigenvalues --   -0.67144  -0.65157  -0.63235  -0.62932  -0.61350
 Alpha  occ. eigenvalues --   -0.60327  -0.56455  -0.55932  -0.54904  -0.54456
 Alpha  occ. eigenvalues --   -0.54020  -0.53576  -0.52428  -0.51827  -0.51370
 Alpha  occ. eigenvalues --   -0.50209  -0.49997  -0.49270  -0.48834  -0.46506
 Alpha  occ. eigenvalues --   -0.45667  -0.44987  -0.44146  -0.43203  -0.42740
 Alpha  occ. eigenvalues --   -0.42237  -0.41426  -0.41115  -0.39939  -0.39703
 Alpha  occ. eigenvalues --   -0.39074  -0.37857  -0.36814  -0.36172  -0.35868
 Alpha  occ. eigenvalues --   -0.35336  -0.35070  -0.34737  -0.34216  -0.34044
 Alpha  occ. eigenvalues --   -0.32550  -0.31403  -0.31158  -0.30349  -0.29870
 Alpha  occ. eigenvalues --   -0.29138  -0.28928  -0.28455  -0.28053  -0.26701
 Alpha  occ. eigenvalues --   -0.25908
 Alpha virt. eigenvalues --   -0.01948  -0.01866  -0.01795  -0.00215   0.00307
 Alpha virt. eigenvalues --    0.01045   0.01867   0.02213   0.03192   0.03407
 Alpha virt. eigenvalues --    0.04023   0.04327   0.04678   0.05266   0.05649

 Mulliken atomic charges:
              1
     1  O   -0.453792
     2  C   -0.181452
     3  C    0.118950
     4  O   -0.486280
     5  H    0.353810
     6  C   -0.166741
     7  O   -0.443751
     8  H    0.384319
     9  C   -0.349215
    10  O   -0.437472
    11  H    0.355224
    12  C    0.040685
    13  O   -0.043472
    14  C    0.109010
    15  O    0.014799
    16  C    0.258694
    17  C   -0.198763
    18  O   -0.470929
    19  H    0.407027
    20  C    0.067988
    21  O   -0.464760
    22  H    0.348395
    23  C   -0.339755
    24  O   -0.493070
    25  H    0.359989
    26  C   -0.290257
    27  O    0.007496
    28  C   -0.110867
    29  O   -0.480837
    30  H    0.338797
    31  H    0.145800
    32  H    0.146499
    33  H    0.124728
    34  H    0.114115
    35  H    0.136027
    36  H    0.144798
    37  H    0.156864
    38  H    0.358534
    39  H    0.153109
    40  H    0.148160
    41  H    0.121158
    42  H    0.117361
    43  H    0.109436
    44  H    0.140092
    45  H    0.129551
 Sum of Mulliken atomic charges =   0.00000

 Dipole moment (field-independent basis, Debye):
    X=              2.7653    Y=             -0.4001    Z=             -1.3330  Tot=              3.0958
 Quadrupole moment (field-independent basis, Debye-Ang):
   XX=           -114.6539   YY=           -136.3676   ZZ=           -141.6783
   XY=             13.9951   XZ=              2.7787   YZ=             -1.7741

  Exact polarizability: 232.481  -2.799 198.430   0.653   0.475 144.104
 Approx polarizability: 274.785  -3.655 258.823  -0.038   0.694 241.396

 ******    6 imaginary frequencies (negative Signs) ******

                     1                      2                      3
                     A                      A                      A
 Frequencies --  -270.2073              -263.4164              -224.6311
 Red. masses --     1.6999                 1.8449                 1.2655
 Frc consts  --     0.0731                 0.0754                 0.0376
 IR Inten    --    15.3703                 5.1278                88.7657
 Raman Activ --     0.1159                 0.1308                 0.7533

                     4                      5                      6
                     A                      A                      A
 Frequencies --  -201.9227               -75.8372               -63.2875
 Red. masses --     1.1865                 6.6987                 6.3651
 Frc consts  --     0.0285                 0.0227                 0.0150
 IR Inten    --   104.2987                 1.5864                 0.1431
 Raman Activ --     1.1179                 0.0520                 0.0194

                     7                      8                      9
                     A                      A                      A
 Frequencies --    35.0905                45.7611                60.0700
 Red. masses --     6.3429                 6.6109                 6.3171
 Frc consts  --     0.0046                 0.0082                 0.0134
 IR Inten    --     2.1147                 0.5640                 3.7630
 Raman Activ --     0.0752                 0.1110                 0.0723

                    10                     11                     12
                     A                      A                      A
 Frequencies --    66.0572                84.8501               114.9799
 Red. masses --     6.7963                 5.7068                 5.9718
 Frc consts  --     0.0175                 0.0242                 0.0465
 IR Inten    --     1.3952                 3.2161                 1.7343
 Raman Activ --     0.1831                 0.0504                 0.1785

                    13                     14                     15
                     A                      A                      A
 Frequencies --   149.2846               188.7642               192.9334
 Red. masses --     6.0135                 6.3402                 6.9460
 Frc consts  --     0.0790                 0.1331                 0.1523
 IR Inten    --     0.8427                 0.8569                 0.5212
 Raman Activ --     0.4167                 1.9441                 0.1112

                    16                     17                     18
                     A                      A                      A
 Frequencies --   201.2610               228.1643               255.6896
 Red. masses --     5.7368                 6.3172                 4.4177
 Frc consts  --     0.1369                 0.1938                 0.1702
 IR Inten    --     2.3422                 2.4104                11.7847
 Raman Activ --     0.1930                 0.9718                 0.6408

                    19                     20                     21
                     A                      A                      A
 Frequencies --   283.9771               295.9247               308.0690
 Red. masses --     4.7215                 5.0355                 6.4449
 Frc consts  --     0.2243                 0.2598                 0.3604
 IR Inten    --     3.1958                 5.1469                 1.1547
 Raman Activ --     0.2737                 0.1571                 3.1427

                    22                     23                     24
                     A                      A                      A
 Frequencies --   309.6365               319.7067               330.0519
 Red. masses --     5.3934                 5.7429                 5.5549
 Frc consts  --     0.3047                 0.3459                 0.3565
 IR Inten    --     0.3533                 6.0063                 2.3676
 Raman Activ --     0.4173                 0.5588                 1.0287

                    25                     26                     27
                     A                      A                      A
 Frequencies --   340.4341               362.6405               379.2340
 Red. masses --     6.8650                 4.2188                 7.3539
 Frc consts  --     0.4688                 0.3269                 0.6231
 IR Inten    --     7.1345                 3.2617                 2.1989
 Raman Activ --     2.7769                 0.4906                 4.4946

                    28                     29                     30
                     A                      A                      A
 Frequencies --   407.2926               417.3134               441.0022
 Red. masses --     5.8787                 4.3656                 5.0040
 Frc consts  --     0.5746                 0.4479                 0.5734
 IR Inten    --    11.2894                 6.9067                 7.4131
 Raman Activ --     3.5211                 2.6370                 1.8161

                    31                     32                     33
                     A                      A                      A
 Frequencies --   444.4551               470.5610               493.1305
 Red. masses --     5.0333                 4.8685                 5.7104
 Frc consts  --     0.5858                 0.6351                 0.8182
 IR Inten    --     2.4979                 6.5292                 2.4075
 Raman Activ --     1.7676                 7.4369                 1.2246

                    34                     35                     36
                     A                      A                      A
 Frequencies --   524.9080               537.3890               566.9910
 Red. masses --     3.0815                 3.1911                 3.9737
 Frc consts  --     0.5002                 0.5430                 0.7527
 IR Inten    --    19.7713                 8.5312                 6.9238
 Raman Activ --     4.5851                 1.5690                 0.7755

                    37                     38                     39
                     A                      A                      A
 Frequencies --   589.5337               601.1757               633.9190
 Red. masses --     2.7292                 5.7048                 4.3406
 Frc consts  --     0.5589                 1.2148                 1.0277
 IR Inten    --    31.7307                 6.1869                 5.2771
 Raman Activ --     0.5702                 0.9324                 0.1615

                    40                     41                     42
                     A                      A                      A
 Frequencies --   647.1336               685.4378               697.4948
 Red. masses --     5.5318                 1.3062                 2.7033
 Frc consts  --     1.3649                 0.3616                 0.7749
 IR Inten    --    43.4151               102.1055                 5.6967
 Raman Activ --     1.6460                 1.2030                 2.0795

                    43                     44                     45
                     A                      A                      A
 Frequencies --   704.1968               727.5661               737.5380
 Red. masses --     1.1038                 1.0573                 1.0551
 Frc consts  --     0.3225                 0.3297                 0.3381
 IR Inten    --    96.3715               128.3996                93.1094
 Raman Activ --     2.6390                 1.5859                 1.9202

                    46                     47                     48
                     A                      A                      A
 Frequencies --   799.0130               818.1592               848.5849
 Red. masses --     1.0728                 1.1117                 1.7572
 Frc consts  --     0.4035                 0.4384                 0.7455
 IR Inten    --    71.7497               109.6747                 1.7102
 Raman Activ --     0.4860                 2.8166                 0.5377

                    49                     50                     51
                     A                      A                      A
 Frequencies --   866.7861               927.1641               961.5613
 Red. masses --     1.6893                 6.3451                 4.8286
 Frc consts  --     0.7478                 3.2136                 2.6304
 IR Inten    --    11.1764               142.6146                17.3846
 Raman Activ --     0.5213                 2.2746                 1.2533

                    52                     53                     54
                     A                      A                      A
 Frequencies --   982.8117               986.4724               993.4067
 Red. masses --     6.6771                 5.7327                 7.8114
 Frc consts  --     3.8000                 3.2869                 4.5418
 IR Inten    --    18.5074               591.5609                68.9737
 Raman Activ --     4.4867                 2.1936                 1.4016

                    55                     56                     57
                     A                      A                      A
 Frequencies --   998.5664              1009.6276              1022.7027
 Red. masses --     4.3768                 5.8773                 5.0218
 Frc consts  --     2.5714                 3.5298                 3.0946
 IR Inten    --    32.6542                23.3011                91.7293
 Raman Activ --     0.3513                 1.5263                 4.7558

                    58                     59                     60
                     A                      A                      A
 Frequencies --  1038.4227              1053.1355              1055.9532
 Red. masses --     5.8205                 6.7173                 3.8585
 Frc consts  --     3.6979                 4.3895                 2.5349
 IR Inten    --   143.4248               109.7063                29.7796
 Raman Activ --     1.1785                 3.8052                 4.0354

                    61                     62                     63
                     A                      A                      A
 Frequencies --  1059.6844              1069.6285              1071.5987
 Red. masses --     3.6638                 4.8481                 2.8598
 Frc consts  --     2.4240                 3.2681                 1.9348
 IR Inten    --   104.9852                37.5793                 4.0354
 Raman Activ --     4.2572                 2.9130                22.2650

                    64                     65                     66
                     A                      A                      A
 Frequencies --  1097.0583              1099.7616              1106.6656
 Red. masses --     2.2716                 3.0690                 3.7664
 Frc consts  --     1.6108                 2.1870                 2.7177
 IR Inten    --    56.9686               114.3223                60.0806
 Raman Activ --     4.1862                11.0592                 2.2805

                    67                     68                     69
                     A                      A                      A
 Frequencies --  1124.6474              1129.3365              1135.3493
 Red. masses --     1.8323                 2.0416                 2.0939
 Frc consts  --     1.3654                 1.5341                 1.5903
 IR Inten    --     9.0182                45.3420                22.9490
 Raman Activ --     2.0559                 8.1989                 5.2018

                    70                     71                     72
                     A                      A                      A
 Frequencies --  1143.0819              1149.0729              1151.7483
 Red. masses --     2.4362                 1.9165                 3.2047
 Frc consts  --     1.8755                 1.4909                 2.5047
 IR Inten    --    42.1119                 3.2898                 2.3945
 Raman Activ --     2.0709                 3.9231                 2.1579

                    73                     74                     75
                     A                      A                      A
 Frequencies --  1158.8233              1171.2231              1180.6828
 Red. masses --     1.7446                 2.0574                 2.2603
 Frc consts  --     1.3803                 1.6628                 1.8564
 IR Inten    --     7.4473                19.7419                 1.7183
 Raman Activ --     3.6614                 5.3702                 2.1083

                    76                     77                     78
                     A                      A                      A
 Frequencies --  1197.8262              1213.1219              1224.8816
 Red. masses --     1.5148                 1.3263                 1.2396
 Frc consts  --     1.2805                 1.1500                 1.0957
 IR Inten    --    26.9784                11.4764                24.9930
 Raman Activ --     3.9414                 3.4425                 1.1337

                    79                     80                     81
                     A                      A                      A
 Frequencies --  1232.2705              1245.4550              1252.7361
 Red. masses --     1.3485                 1.1567                 1.3556
 Frc consts  --     1.2065                 1.0571                 1.2535
 IR Inten    --    15.4581                 3.5430                16.4534
 Raman Activ --     2.0834                 1.3404                 1.7828

                    82                     83                     84
                     A                      A                      A
 Frequencies --  1270.2468              1278.5421              1281.9628
 Red. masses --     1.4204                 1.2199                 1.2031
 Frc consts  --     1.3503                 1.1749                 1.1649
 IR Inten    --    52.3979                15.1012                22.9673
 Raman Activ --     4.1941                 5.6867                 6.1275

                    85                     86                     87
                     A                      A                      A
 Frequencies --  1290.9000              1293.7110              1300.0429
 Red. masses --     1.3449                 1.4635                 1.1888
 Frc consts  --     1.3205                 1.4432                 1.1838
 IR Inten    --     2.4610                40.1657                34.6630
 Raman Activ --     2.6363                 1.2101                 3.4570

                    88                     89                     90
                     A                      A                      A
 Frequencies --  1309.1864              1317.7453              1319.5616
 Red. masses --     1.2943                 1.1665                 1.1660
 Frc consts  --     1.3070                 1.1935                 1.1962
 IR Inten    --    27.8523                 3.3104                30.5382
 Raman Activ --     5.0144                 4.4489                 3.9974

                    91                     92                     93
                     A                      A                      A
 Frequencies --  1332.4935              1341.3533              1345.2105
 Red. masses --     1.2216                 1.2339                 1.2654
 Frc consts  --     1.2779                 1.3080                 1.3492
 IR Inten    --     1.8746                46.5047                13.8221
 Raman Activ --     4.7838                 5.1833                 0.7694

                    94                     95                     96
                     A                      A                      A
 Frequencies --  1352.2757              1358.0211              1361.3058
 Red. masses --     1.6112                 1.5246                 1.5232
 Frc consts  --     1.7359                 1.6566                 1.6632
 IR Inten    --     2.6799                11.6401                 0.7462
 Raman Activ --     7.2756                 4.4460                 5.9236

                    97                     98                     99
                     A                      A                      A
 Frequencies --  1383.5502              1388.5785              1399.3065
 Red. masses --     1.6058                 1.1667                 1.3956
 Frc consts  --     1.8110                 1.3254                 1.6101
 IR Inten    --    31.4163                12.6534                13.3350
 Raman Activ --     1.2296                 1.4318                 3.0444

                   100                    101                    102
                     A                      A                      A
 Frequencies --  1412.0921              1419.8941              1443.8030
 Red. masses --     1.3900                 1.4159                 1.3539
 Frc consts  --     1.6330                 1.6819                 1.6629
 IR Inten    --     5.3674                17.0504                15.9459
 Raman Activ --     7.8985                 6.2514                 1.9015

                   103                    104                    105
                     A                      A                      A
 Frequencies --  1448.3952              1466.0756              1468.7293
 Red. masses --     1.3459                 1.1035                 1.0985
 Frc consts  --     1.6636                 1.3974                 1.3961
 IR Inten    --    19.6597                 2.9662                 1.9494
 Raman Activ --     3.0323                 2.9855                 3.5510

                   106                    107                    108
                     A                      A                      A
 Frequencies --  1480.6248              1559.3208              3242.1073
 Red. masses --     1.3028                 1.2032                 1.0784
 Frc consts  --     1.6828                 1.7236                 6.6789
 IR Inten    --    34.7446                50.2493                17.0557
 Raman Activ --     0.8296                 1.1278                77.4956

                   109                    110                    111
                     A                      A                      A
 Frequencies --  3254.0413              3254.0905              3256.1519
 Red. masses --     1.0644                 1.0673                 1.0624
 Frc consts  --     6.6408                 6.6591                 6.6366
 IR Inten    --    58.0197                 3.0170               106.2203
 Raman Activ --   107.5406                14.4060               150.4393

                   112                    113                    114
                     A                      A                      A
 Frequencies --  3263.6594              3271.4104              3275.9172
 Red. masses --     1.0813                 1.0845                 1.0746
 Frc consts  --     6.7859                 6.8385                 6.7948
 IR Inten    --    19.1822                11.7134               289.0617
 Raman Activ --    75.2657                 6.5783                72.5426

                   115                    116                    117
                     A                      A                      A
 Frequencies --  3279.9651              3284.3150              3288.5945
 Red. masses --     1.0849                 1.0777                 1.0878
 Frc consts  --     6.8769                 6.8489                 6.9315
 IR Inten    --    16.8190               162.3983                 7.6736
 Raman Activ --     2.9435               233.5022                26.8894

                   118                    119                    120
                     A                      A                      A
 Frequencies --  3294.6383              3294.8786              3305.2293
 Red. masses --     1.0853                 1.0867                 1.0895
 Frc consts  --     6.9411                 6.9511                 7.0125
 IR Inten    --   113.1938                 4.1738                24.2039
 Raman Activ --    10.8620               136.2001                14.7842

                   121                    122                    123
                     A                      A                      A
 Frequencies --  3309.7079              3311.7436              3317.1523
 Red. masses --     1.1033                 1.1009                 1.0683
 Frc consts  --     7.1209                 7.1138                 6.9258
 IR Inten    --    62.5623                67.6775               377.1940
 Raman Activ --    37.2264                52.6394               177.6503

                   124                    125                    126
                     A                      A                      A
 Frequencies --  3349.4644              3353.2356              3354.6320
 Red. masses --     1.0656                 1.0669                 1.0697
 Frc consts  --     7.0439                 7.0683                 7.0929
 IR Inten    --    37.4084                74.6250                43.3894
 Raman Activ --   114.9243               116.3647               156.7039

                   127                    128                    129
                     A                      A                      A
 Frequencies --  3355.3550              3874.0840              3874.4532
 Red. masses --     1.0668                 1.0678                 1.0674
 Frc consts  --     7.0761                 9.4422                 9.4407
 IR Inten    --    37.7692               101.4040                41.5587
 Raman Activ --   191.5439                62.4024               149.6670

 - Thermochemistry -
 -------------------
 Temperature   298.150 Kelvin.  Pressure   1.00000 Atm.
 Atom     1 has atomic number  8 and mass  15.99491

 Molecular mass:   342.11621 amu.
 Principal axes and moments of inertia in atomic units:
                           1         2         3
     Eigenvalues --  4471.02512********************
           X            0.99997   0.00755   0.00010
           Y           -0.00755   0.99997   0.00142
           Z           -0.00009  -0.00142   1.00000
 This molecule is an asymmetric top.
 Rotational symmetry number  1.
 Warning -- assumption of classical behavior for rotation
           may cause significant error
 Rotational temperatures (Kelvin)      0.01937     0.00713     0.00539
 Rotational constants (GHZ):           0.40365     0.14850     0.11235
    6 imaginary frequencies ignored.
 Zero-point vibrational energy     973427.7 (Joules/Mol)
                                  232.65479 (Kcal/Mol)
 Warning -- explicit consideration of  32 degrees of freedom as
           vibrations may cause significant error
 Vibrational temperatures:     50.49    65.84    86.43    95.04   122.08
          (Kelvin)            165.43   214.79   271.59   277.59   289.57
                              328.28   367.88   408.58   425.77   443.24
                              445.50   459.99   474.87   489.81   521.76
                              545.63   586.00   600.42   634.50   639.47
                              677.03   709.50   755.22   773.18   815.77
                              848.21   864.96   912.07   931.08   986.19
                             1003.54  1013.18  1046.80  1061.15  1149.60
                             1177.15  1220.92  1247.11  1333.98  1383.47
                             1414.04  1419.31  1429.29  1436.71  1452.63
                             1471.44  1494.06  1515.23  1519.28  1524.65
                             1538.95  1541.79  1578.42  1582.31  1592.24
                             1618.11  1624.86  1633.51  1644.64  1653.26
                             1657.11  1667.29  1685.13  1698.74  1723.40
                             1745.41  1762.33  1772.96  1791.93  1802.41
                             1827.60  1839.53  1844.46  1857.31  1861.36
                             1870.47  1883.62  1895.94  1898.55  1917.16
                             1929.91  1935.46  1945.62  1953.89  1958.61
                             1990.62  1997.85  2013.29  2031.68  2042.91
                             2077.31  2083.92  2109.35  2113.17  2130.29
                             2243.51  4664.66  4681.83  4681.90  4684.87
                             4695.67  4706.82  4713.31  4719.13  4725.39
                             4731.55  4740.24  4740.59  4755.48  4761.93
                             4764.85  4772.64  4819.13  4824.55  4826.56
                             4827.60  5573.94  5574.47

 Zero-point correction=                           0.370759 (Hartree/Particle)
 Thermal correction to Energy=                    0.389940
 Thermal correction to Enthalpy=                  0.390884
 Thermal correction to Gibbs Free Energy=         0.323289
 Sum of electronic and zero-point Energies=          -1297.620068
 Sum of electronic and thermal Energies=             -1297.600887
 Sum of electronic and thermal Enthalpies=           -1297.599943
 Sum of electronic and thermal Free Energies=        -1297.667538

                     E (Thermal)             CV                S
                      KCal/Mol        Cal/Mol-Kelvin    Cal/Mol-Kelvin
 Total                  244.691             77.801            142.266
 Electronic               0.000              0.000              0.000
 Translational            0.889              2.981             43.384
 Rotational               0.889              2.981             35.122
 Vibrational            242.914             71.839             63.759
 Vibration     1          0.594              1.982              5.519
 Vibration     2          0.595              1.979              4.993
 Vibration     3          0.597              1.973              4.455
 Vibration     4          0.597              1.970              4.268
 Vibration     5          0.601              1.960              3.775
 Vibration     6          0.608              1.937              3.183
 Vibration     7          0.618              1.903              2.681
 Vibration     8          0.633              1.855              2.240
 Vibration     9          0.635              1.850              2.199
 Vibration    10          0.638              1.838              2.122
 Vibration    11          0.651              1.798              1.893
 Vibration    12          0.666              1.753              1.691
 Vibration    13          0.682              1.703              1.510
 Vibration    14          0.690              1.681              1.440
 Vibration    15          0.698              1.658              1.373
 Vibration    16          0.699              1.655              1.364
 Vibration    17          0.706              1.636              1.312
 Vibration    18          0.713              1.615              1.260
 Vibration    19          0.720              1.595              1.210
 Vibration    20          0.736              1.549              1.111
 Vibration    21          0.749              1.514              1.042
 Vibration    22          0.772              1.454              0.936
 Vibration    23          0.780              1.433              0.901
 Vibration    24          0.801              1.381              0.823
 Vibration    25          0.804              1.373              0.813
 Vibration    26          0.828              1.315              0.736
 Vibration    27          0.849              1.265              0.676
 Vibration    28          0.880              1.195              0.599
 Vibration    29          0.892              1.167              0.571
 Vibration    30          0.923              1.103              0.510
 Vibration    31          0.947              1.054              0.468
 Vibration    32          0.959              1.029              0.448

 Normal termination of Gaussian 09 at Tue Feb 16 08:33:48 2016.
