 Gaussian 09, Revision B.01,
 Gaussian 09:  EM64L-G09RevB.01 12-Aug-2010

 -------------------------------------------------
 # freq=raman b3lyp/6-31+g(2d,p) geom=connectivity
 -------------------------------------------------

 -----------------
 310 8695/8695.com
 -----------------
 Symbolic Z-matrix:
 Charge =  0 Multiplicity = 1

                         Standard orientation:
 ---------------------------------------------------------------------
 Center     Atomic      Atomic             Coordinates (Angstroms)
 Number     Number       Type             X           Y           Z
 ---------------------------------------------------------------------
      1          8           0       -5.032685   -0.464359    0.408205
      2          6           0       -3.745372   -0.166739   -0.152215
      3          6           0       -3.280301    1.228585    0.228179
      4          8           0       -4.174553    2.246395   -0.242600
      5          1           0       -5.068341    1.821646   -0.100226
      6          6           0       -1.855350    1.580278   -0.167408
      7          8           0       -1.372156    2.781301    0.450867
      8          1           0       -0.585027    3.055012   -0.101004
      9          6           0       -2.968882   -2.427772   -0.358712
     10          8           0       -3.981496   -3.224748    0.272126
     11          1           0       -3.943692   -4.199936    0.055781
     12          6           0       -2.663090   -1.113005    0.341615
     13          8           0       -1.296772   -0.886171   -0.030958
     14          6           0       -0.924197    0.464631    0.279555
     15          8           0        0.259679    0.535619   -0.527792
     16          6           0        1.466067    0.176418    0.162421
     17          6           0        1.981272   -1.127785   -0.423010
     18          8           0        1.009273   -2.171850   -0.264016
     19          1           0        0.128451   -1.699878   -0.227652
     20          6           0        3.327428   -1.470749    0.191876
     21          8           0        3.749915   -2.747820   -0.308068
     22          1           0        4.701920   -2.868348   -0.026605
     23          6           0        2.290414    2.618459    0.139165
     24          8           0        1.178811    3.202477   -0.554890
     25          1           0        1.360191    4.178164   -0.676232
     26          6           0        2.567732    1.162213   -0.193754
     27          8           0        3.854518    0.875064    0.373371
     28          6           0        4.352770   -0.386413   -0.095579
     29          8           0        5.551057   -0.533454    0.680114
     30          1           0       -5.634330   -0.725316   -0.292884
     31          1           0       -2.067611   -3.002660   -0.404681
     32          1           0       -3.284037   -2.211843   -1.358188
     33          1           0       -2.739155   -1.237516    1.401620
     34          1           0       -3.806697   -0.234491   -1.218305
     35          1           0       -3.312307    1.270873    1.296864
     36          1           0       -1.799075    1.683003   -1.230977
     37          1           0       -0.679367    0.562937    1.316519
     38          1           0        6.283431   -0.752190    0.099268
     39          1           0        4.578783   -0.340480   -1.140427
     40          1           0        3.205136   -1.546711    1.252146
     41          1           0        2.130535   -0.978782   -1.472019
     42          1           0        1.318820    0.107579    1.220003
     43          1           0        2.683978    1.109486   -1.256113
     44          1           0        3.166483    3.188005   -0.091101
     45          1           0        2.106238    2.693095    1.190549
 ---------------------------------------------------------------------

 SCF Done:  E(RB3LYP) =  -1297.98753647     A.U. after   13 cycles

 The electronic state is 1-A.
 Alpha  occ. eigenvalues --  -19.19360 -19.18449 -19.18142 -19.18097 -19.17717
 Alpha  occ. eigenvalues --  -19.17475 -19.15921 -19.15710 -19.15241 -19.14600
 Alpha  occ. eigenvalues --  -19.12618 -10.30536 -10.30245 -10.25943 -10.25417
 Alpha  occ. eigenvalues --  -10.25332 -10.25160 -10.24891 -10.24890 -10.24247
 Alpha  occ. eigenvalues --  -10.24113 -10.23718 -10.23458  -1.10904  -1.09151
 Alpha  occ. eigenvalues --   -1.06033  -1.05199  -1.03976  -1.03177  -1.02790
 Alpha  occ. eigenvalues --   -1.02445  -1.01968  -1.01032  -0.99629  -0.82310
 Alpha  occ. eigenvalues --   -0.81171  -0.78858  -0.78245  -0.71514  -0.69812
 Alpha  occ. eigenvalues --   -0.67468  -0.64844  -0.63237  -0.62694  -0.61299
 Alpha  occ. eigenvalues --   -0.60205  -0.56438  -0.56249  -0.55276  -0.54587
 Alpha  occ. eigenvalues --   -0.54488  -0.53374  -0.52850  -0.51179  -0.50966
 Alpha  occ. eigenvalues --   -0.50316  -0.50167  -0.49801  -0.47932  -0.46582
 Alpha  occ. eigenvalues --   -0.45988  -0.44605  -0.44130  -0.43859  -0.43262
 Alpha  occ. eigenvalues --   -0.42346  -0.41637  -0.41401  -0.40245  -0.39805
 Alpha  occ. eigenvalues --   -0.38748  -0.38065  -0.37738  -0.36546  -0.36160
 Alpha  occ. eigenvalues --   -0.35790  -0.35122  -0.34823  -0.34267  -0.33637
 Alpha  occ. eigenvalues --   -0.32979  -0.31719  -0.30703  -0.30346  -0.29838
 Alpha  occ. eigenvalues --   -0.29285  -0.28867  -0.28072  -0.27554  -0.26890
 Alpha  occ. eigenvalues --   -0.25890
 Alpha virt. eigenvalues --   -0.02053  -0.02004  -0.01883   0.00042   0.00478
 Alpha virt. eigenvalues --    0.01020   0.01668   0.02286   0.03363   0.03384
 Alpha virt. eigenvalues --    0.03935   0.04212   0.04873   0.05556   0.05809

 Mulliken atomic charges:
              1
     1  O   -0.526399
     2  C   -0.199672
     3  C    0.237424
     4  O   -0.561508
     5  H    0.337528
     6  C    0.004167
     7  O   -0.527246
     8  H    0.392063
     9  C   -0.153820
    10  O   -0.555524
    11  H    0.341659
    12  C    0.226718
    13  O   -0.248615
    14  C    0.127830
    15  O   -0.174623
    16  C    0.047094
    17  C    0.196591
    18  O   -0.620088
    19  H    0.430470
    20  C    0.206908
    21  O   -0.534746
    22  H    0.326630
    23  C   -0.321114
    24  O   -0.565842
    25  H    0.361390
    26  C    0.016733
    27  O   -0.249273
    28  C    0.025323
    29  O   -0.528581
    30  H    0.346014
    31  H    0.142602
    32  H    0.121489
    33  H    0.130182
    34  H    0.119277
    35  H    0.122630
    36  H    0.137228
    37  H    0.127565
    38  H    0.333312
    39  H    0.130605
    40  H    0.126541
    41  H    0.115002
    42  H    0.117029
    43  H    0.117830
    44  H    0.144969
    45  H    0.156247
 Sum of Mulliken atomic charges =   0.00000

 Dipole moment (field-independent basis, Debye):
    X=              1.6967    Y=              0.5735    Z=             -2.5639  Tot=              3.1275
 Quadrupole moment (field-independent basis, Debye-Ang):
   XX=           -115.9487   YY=           -138.4111   ZZ=           -139.1822
   XY=             16.2256   XZ=              1.2591   YZ=             -1.4961

  Exact polarizability: 233.611  -0.651 195.810   0.748   0.783 143.362
 Approx polarizability: 274.830   0.737 256.652   0.259   1.557 239.337

 ******    6 imaginary frequencies (negative Signs) ******

                     1                      2                      3
                     A                      A                      A
 Frequencies --  -251.8187              -229.0034              -217.7085
 Red. masses --     1.6374                 1.8065                 1.2274
 Frc consts  --     0.0612                 0.0558                 0.0343
 IR Inten    --    58.1086                 2.9915               103.8177
 Raman Activ --     0.2806                 0.0671                 0.7614

                     4                      5                      6
                     A                      A                      A
 Frequencies --  -196.0768               -76.7145               -40.1892
 Red. masses --     1.4242                 6.5237                 6.3027
 Frc consts  --     0.0323                 0.0226                 0.0060
 IR Inten    --    49.1823                 0.5276                 0.4229
 Raman Activ --     0.4028                 0.0439                 0.0215

                     7                      8                      9
                     A                      A                      A
 Frequencies --    26.4684                44.3529                54.0548
 Red. masses --     6.4124                 6.5307                 6.6839
 Frc consts  --     0.0026                 0.0076                 0.0115
 IR Inten    --     0.2542                 0.8144                 0.8399
 Raman Activ --     0.0160                 0.0626                 0.0569

                    10                     11                     12
                     A                      A                      A
 Frequencies --    82.7418               102.4502               124.1746
 Red. masses --     5.6414                 6.2704                 5.7911
 Frc consts  --     0.0228                 0.0388                 0.0526
 IR Inten    --     3.7508                 0.3637                 1.5769
 Raman Activ --     0.2624                 0.1327                 0.1262

                    13                     14                     15
                     A                      A                      A
 Frequencies --   153.8279               188.9552               200.8734
 Red. masses --     6.2853                 6.7945                 6.1879
 Frc consts  --     0.0876                 0.1429                 0.1471
 IR Inten    --     4.0876                 1.8565                 0.7408
 Raman Activ --     0.3210                 0.8871                 0.9908

                    16                     17                     18
                     A                      A                      A
 Frequencies --   211.7584               239.8975               268.7415
 Red. masses --     6.3586                 5.9381                 4.7425
 Frc consts  --     0.1680                 0.2014                 0.2018
 IR Inten    --     0.2774                 1.8486                16.8907
 Raman Activ --     1.3111                 0.2082                 0.2286

                    19                     20                     21
                     A                      A                      A
 Frequencies --   279.2664               284.0869               298.6391
 Red. masses --     4.4736                 4.3431                 5.9670
 Frc consts  --     0.2056                 0.2065                 0.3135
 IR Inten    --     0.3701                 2.9719                 1.1295
 Raman Activ --     0.0729                 0.3651                 0.5006

                    22                     23                     24
                     A                      A                      A
 Frequencies --   313.9358               319.1745               331.2580
 Red. masses --     4.4253                 5.5785                 5.5757
 Frc consts  --     0.2570                 0.3348                 0.3605
 IR Inten    --     4.1447                 3.9704                 0.7449
 Raman Activ --     0.8593                 1.8188                 2.1797

                    25                     26                     27
                     A                      A                      A
 Frequencies --   340.3245               365.7058               393.3400
 Red. masses --     6.3606                 5.5102                 6.3980
 Frc consts  --     0.4340                 0.4342                 0.5832
 IR Inten    --    11.9329                 3.8203                 3.1050
 Raman Activ --     3.6752                 0.0394                 1.0234

                    28                     29                     30
                     A                      A                      A
 Frequencies --   410.9865               420.5190               439.4044
 Red. masses --     6.2248                 4.9418                 5.4817
 Frc consts  --     0.6195                 0.5149                 0.6236
 IR Inten    --     3.3927                 7.4668                11.8863
 Raman Activ --     5.9652                 4.5878                 2.5990

                    31                     32                     33
                     A                      A                      A
 Frequencies --   451.7330               491.3841               497.7010
 Red. masses --     4.2760                 4.8862                 3.4757
 Frc consts  --     0.5141                 0.6951                 0.5073
 IR Inten    --     2.6584                 1.5080                 7.7671
 Raman Activ --     3.0566                 4.7849                 0.5424

                    34                     35                     36
                     A                      A                      A
 Frequencies --   518.7883               550.1428               574.1893
 Red. masses --     4.2501                 3.0830                 3.8832
 Frc consts  --     0.6740                 0.5498                 0.7543
 IR Inten    --     9.1754                 5.0656                14.9709
 Raman Activ --     2.0581                 3.9709                 1.6080

                    37                     38                     39
                     A                      A                      A
 Frequencies --   595.5378               608.2734               632.3522
 Red. masses --     2.7949                 5.8304                 4.6253
 Frc consts  --     0.5840                 1.2710                 1.0897
 IR Inten    --    29.4294                 7.6751                15.0044
 Raman Activ --     0.1556                 0.7050                 0.2784

                    40                     41                     42
                     A                      A                      A
 Frequencies --   647.7306               661.3338               706.2801
 Red. masses --     3.5992                 1.1441                 4.6200
 Frc consts  --     0.8897                 0.2948                 1.3578
 IR Inten    --    12.8564               121.9763                28.0401
 Raman Activ --     0.5465                 2.0961                 2.7125

                    43                     44                     45
                     A                      A                      A
 Frequencies --   717.2947               743.5675               757.6162
 Red. masses --     1.0906                 1.0757                 1.0817
 Frc consts  --     0.3306                 0.3504                 0.3658
 IR Inten    --    91.2023                80.9851                57.4928
 Raman Activ --     1.9622                 1.6737                 0.4848

                    46                     47                     48
                     A                      A                      A
 Frequencies --   773.2373               800.9309               865.8270
 Red. masses --     1.0796                 1.0924                 1.6876
 Frc consts  --     0.3803                 0.4129                 0.7454
 IR Inten    --    84.6768               139.3282                 0.9993
 Raman Activ --     1.3796                 1.8941                 0.8140

                    49                     50                     51
                     A                      A                      A
 Frequencies --   886.2302               930.4725               955.3052
 Red. masses --     1.7529                 5.8562                 6.3471
 Frc consts  --     0.8112                 2.9873                 3.4128
 IR Inten    --     2.8272                99.1907               132.4252
 Raman Activ --     0.4939                 2.5417                 1.0815

                    52                     53                     54
                     A                      A                      A
 Frequencies --   978.3980               979.1039               991.6952
 Red. masses --     6.0590                 4.9093                 4.7938
 Frc consts  --     3.4173                 2.7729                 2.7777
 IR Inten    --   190.1522                 7.7659                29.5609
 Raman Activ --     1.2160                 2.1880                 2.5403

                    55                     56                     57
                     A                      A                      A
 Frequencies --  1006.9022              1015.1868              1024.3480
 Red. masses --     6.2032                 6.4285                 6.1517
 Frc consts  --     3.7054                 3.9035                 3.8031
 IR Inten    --   288.1562                13.9665               125.5178
 Raman Activ --     1.4202                 1.6541                 4.1350

                    58                     59                     60
                     A                      A                      A
 Frequencies --  1036.4034              1047.0211              1059.8255
 Red. masses --     3.9208                 7.2193                 4.6030
 Frc consts  --     2.4813                 4.6629                 3.0462
 IR Inten    --   102.1937               363.4004                67.2023
 Raman Activ --     6.6487                 5.0607                 1.0397

                    61                     62                     63
                     A                      A                      A
 Frequencies --  1066.6173              1073.4562              1079.0917
 Red. masses --     4.2233                 4.0784                 5.0996
 Frc consts  --     2.8308                 2.7689                 3.4987
 IR Inten    --    45.5118                 6.5910               113.1436
 Raman Activ --     8.9104                12.4618                12.2991

                    64                     65                     66
                     A                      A                      A
 Frequencies --  1095.3640              1103.3620              1105.9820
 Red. masses --     2.6113                 2.9728                 2.2545
 Frc consts  --     1.8460                 2.1323                 1.6248
 IR Inten    --    12.6000                13.9965                14.5907
 Raman Activ --     3.7725                13.8242                 4.1895

                    67                     68                     69
                     A                      A                      A
 Frequencies --  1115.6509              1122.5598              1125.6665
 Red. masses --     2.3429                 2.0028                 1.9873
 Frc consts  --     1.7181                 1.4870                 1.4836
 IR Inten    --    45.6195                 3.9729                56.4130
 Raman Activ --     8.5690                 0.3159                 2.0887

                    70                     71                     72
                     A                      A                      A
 Frequencies --  1145.6612              1147.2153              1149.2186
 Red. masses --     2.7744                 2.3371                 2.8323
 Frc consts  --     2.1455                 1.8122                 2.2039
 IR Inten    --    11.8532                11.1290                26.9704
 Raman Activ --     4.4376                 4.9321                 4.5824

                    73                     74                     75
                     A                      A                      A
 Frequencies --  1163.6093              1175.3299              1189.7978
 Red. masses --     1.9407                 1.5273                 1.9625
 Frc consts  --     1.5482                 1.2431                 1.6368
 IR Inten    --    10.2859                 5.9950                 7.2982
 Raman Activ --     3.4255                 2.4494                 2.6693

                    76                     77                     78
                     A                      A                      A
 Frequencies --  1208.7919              1210.2344              1229.6879
 Red. masses --     1.4079                 1.4684                 1.2975
 Frc consts  --     1.2121                 1.2672                 1.1560
 IR Inten    --     8.6788                 8.6034                 0.7198
 Raman Activ --     2.6139                 1.0298                 1.0953

                    79                     80                     81
                     A                      A                      A
 Frequencies --  1231.3285              1235.7535              1255.8051
 Red. masses --     1.2581                 1.2135                 1.3484
 Frc consts  --     1.1239                 1.0919                 1.2529
 IR Inten    --    15.4588                 7.1223                12.1824
 Raman Activ --     1.1312                 0.8968                 0.9858

                    82                     83                     84
                     A                      A                      A
 Frequencies --  1270.2215              1272.3326              1280.8734
 Red. masses --     1.1878                 1.2241                 1.2643
 Frc consts  --     1.1292                 1.1675                 1.2221
 IR Inten    --     6.6312                 8.7906                 3.7738
 Raman Activ --     3.0153                 3.4448                 3.2495

                    85                     86                     87
                     A                      A                      A
 Frequencies --  1287.4677              1294.8628              1304.7650
 Red. masses --     1.3280                 1.3715                 1.3827
 Frc consts  --     1.2969                 1.3548                 1.3869
 IR Inten    --    21.1094                29.1099                13.6862
 Raman Activ --     1.6360                 1.3556                 1.9327

                    88                     89                     90
                     A                      A                      A
 Frequencies --  1312.6489              1316.9141              1322.3426
 Red. masses --     1.3105                 1.1645                 1.3185
 Frc consts  --     1.3304                 1.1899                 1.3584
 IR Inten    --    14.9416                66.6811                30.2255
 Raman Activ --     3.4864                 5.3390                 3.7448

                    91                     92                     93
                     A                      A                      A
 Frequencies --  1329.6236              1343.1687              1346.1499
 Red. masses --     1.2948                 1.2853                 1.2132
 Frc consts  --     1.3486                 1.3662                 1.2953
 IR Inten    --     5.7830                20.5631                35.4176
 Raman Activ --    10.8467                 2.9169                 3.9826

                    94                     95                     96
                     A                      A                      A
 Frequencies --  1350.8166              1355.6870              1367.9684
 Red. masses --     1.2928                 1.4148                 1.4627
 Frc consts  --     1.3899                 1.5320                 1.6127
 IR Inten    --     1.2839                41.2016                 8.8882
 Raman Activ --     0.4705                 8.2075                 7.1925

                    97                     98                     99
                     A                      A                      A
 Frequencies --  1374.0721              1395.0000              1397.1628
 Red. masses --     1.4872                 1.4195                 1.4753
 Frc consts  --     1.6544                 1.6275                 1.6967
 IR Inten    --     1.8290                 5.7840                 2.5439
 Raman Activ --     5.1757                 3.2831                 8.7078

                   100                    101                    102
                     A                      A                      A
 Frequencies --  1436.6909              1445.8318              1468.1801
 Red. masses --     1.3478                 1.4266                 1.3104
 Frc consts  --     1.6391                 1.7570                 1.6642
 IR Inten    --    22.4999                35.3857                48.6788
 Raman Activ --     1.9315                 1.1273                 2.7080

                   103                    104                    105
                     A                      A                      A
 Frequencies --  1474.0069              1479.8116              1489.0100
 Red. masses --     1.0953                 1.3567                 1.0942
 Frc consts  --     1.4021                 1.7504                 1.4293
 IR Inten    --     7.4185                27.4714                 6.8176
 Raman Activ --     3.7931                 1.1162                 3.1882

                   106                    107                    108
                     A                      A                      A
 Frequencies --  1522.2091              1549.5411              3250.4923
 Red. masses --     1.2414                 1.2005                 1.0595
 Frc consts  --     1.6948                 1.6983                 6.5957
 IR Inten    --    36.3929                54.2881                21.8620
 Raman Activ --     0.8876                 2.1745                38.7280

                   109                    110                    111
                     A                      A                      A
 Frequencies --  3257.5639              3262.0045              3266.0036
 Red. masses --     1.0732                 1.0631                 1.0802
 Frc consts  --     6.7099                 6.6651                 6.7887
 IR Inten    --    77.3336               233.2105                 9.9165
 Raman Activ --    22.4592               155.6276               151.8265

                   112                    113                    114
                     A                      A                      A
 Frequencies --  3269.3030              3278.2156              3280.4764
 Red. masses --     1.0762                 1.0813                 1.0836
 Frc consts  --     6.7770                 6.8467                 6.8704
 IR Inten    --   187.4026               102.1445                 3.2600
 Raman Activ --    84.4155                72.9638               118.6784

                   115                    116                    117
                     A                      A                      A
 Frequencies --  3281.4475              3288.5831              3293.0287
 Red. masses --     1.0797                 1.0861                 1.0856
 Frc consts  --     6.8498                 6.9203                 6.9359
 IR Inten    --   212.0526                 6.9260                33.2456
 Raman Activ --    63.5251                26.9199               135.3939

                   118                    119                    120
                     A                      A                      A
 Frequencies --  3294.2619              3300.3436              3304.9151
 Red. masses --     1.0860                 1.0879                 1.0870
 Frc consts  --     6.9441                 6.9818                 6.9951
 IR Inten    --    17.4771                 3.9180                79.1482
 Raman Activ --    24.0108                 5.0712                42.3621

                   121                    122                    123
                     A                      A                      A
 Frequencies --  3309.7142              3313.1081              3320.7454
 Red. masses --     1.0686                 1.1033                 1.1061
 Frc consts  --     6.8970                 7.1354                 7.1865
 IR Inten    --   694.0139                77.7994                87.4312
 Raman Activ --   141.9715                25.8860                29.1886

                   124                    125                    126
                     A                      A                      A
 Frequencies --  3363.7605              3363.8869              3371.6209
 Red. masses --     1.0648                 1.0657                 1.0685
 Frc consts  --     7.0988                 7.1048                 7.1566
 IR Inten    --    32.9309                19.4009                47.0487
 Raman Activ --    71.1180               157.5333               195.4988

                   127                    128                    129
                     A                      A                      A
 Frequencies --  3372.8393              3891.8095              3892.4230
 Red. masses --     1.0678                 1.0674                 1.0676
 Frc consts  --     7.1570                 9.5250                 9.5305
 IR Inten    --    45.7878                79.5638                76.0484
 Raman Activ --   144.4180               107.9996                99.0680

 - Thermochemistry -
 -------------------
 Temperature   298.150 Kelvin.  Pressure   1.00000 Atm.
 Atom     1 has atomic number  8 and mass  15.99491

 Molecular mass:   342.11621 amu.
 Principal axes and moments of inertia in atomic units:
                           1         2         3
     Eigenvalues --  4317.86498********************
           X            0.99997   0.00778   0.00024
           Y           -0.00778   0.99997   0.00153
           Z           -0.00023  -0.00153   1.00000
 This molecule is an asymmetric top.
 Rotational symmetry number  1.
 Warning -- assumption of classical behavior for rotation
           may cause significant error
 Rotational temperatures (Kelvin)      0.02006     0.00711     0.00538
 Rotational constants (GHZ):           0.41797     0.14805     0.11220
    6 imaginary frequencies ignored.
 Zero-point vibrational energy     976415.0 (Joules/Mol)
                                  233.36878 (Kcal/Mol)
 Warning -- explicit consideration of  32 degrees of freedom as
           vibrations may cause significant error
 Vibrational temperatures:     38.08    63.81    77.77   119.05   147.40
          (Kelvin)            178.66   221.32   271.86   289.01   304.67
                              345.16   386.66   401.80   408.74   429.67
                              451.68   459.22   476.61   489.65   526.17
                              565.93   591.32   605.03   632.20   649.94
                              706.99   716.08   746.42   791.53   826.13
                              856.85   875.17   909.81   931.94   951.51
                             1016.18  1032.03  1069.83  1090.04  1112.51
                             1152.36  1245.73  1275.09  1338.74  1374.47
                             1407.69  1408.71  1426.83  1448.71  1460.63
                             1473.81  1491.15  1506.43  1524.85  1534.62
                             1544.46  1552.57  1575.98  1587.49  1591.26
                             1605.17  1615.11  1619.58  1648.35  1650.58
                             1653.47  1674.17  1691.04  1711.85  1739.18
                             1741.26  1769.24  1771.60  1777.97  1806.82
                             1827.56  1830.60  1842.89  1852.38  1863.02
                             1877.26  1888.61  1894.74  1902.55  1913.03
                             1932.52  1936.81  1943.52  1950.53  1968.20
                             1976.98  2007.09  2010.20  2067.08  2080.23
                             2112.38  2120.76  2129.12  2142.35  2190.12
                             2229.44  4676.73  4686.90  4693.29  4699.04
                             4703.79  4716.62  4719.87  4721.27  4731.53
                             4737.93  4739.70  4748.45  4755.03  4761.93
                             4766.82  4777.81  4839.70  4839.88  4851.00
                             4852.76  5599.44  5600.32

 Zero-point correction=                           0.371897 (Hartree/Particle)
 Thermal correction to Energy=                    0.390908
 Thermal correction to Enthalpy=                  0.391852
 Thermal correction to Gibbs Free Energy=         0.324586
 Sum of electronic and zero-point Energies=          -1297.615640
 Sum of electronic and thermal Energies=             -1297.596628
 Sum of electronic and thermal Enthalpies=           -1297.595684
 Sum of electronic and thermal Free Energies=        -1297.662950

                     E (Thermal)             CV                S
                      KCal/Mol        Cal/Mol-Kelvin    Cal/Mol-Kelvin
 Total                  245.299             77.470            141.574
 Electronic               0.000              0.000              0.000
 Translational            0.889              2.981             43.384
 Rotational               0.889              2.981             35.092
 Vibrational            243.521             71.508             63.098
 Vibration     1          0.593              1.985              6.078
 Vibration     2          0.595              1.980              5.055
 Vibration     3          0.596              1.976              4.663
 Vibration     4          0.600              1.961              3.825
 Vibration     5          0.605              1.947              3.407
 Vibration     6          0.610              1.929              3.034
 Vibration     7          0.619              1.898              2.624
 Vibration     8          0.633              1.855              2.238
 Vibration     9          0.638              1.839              2.125
 Vibration    10          0.643              1.823              2.028
 Vibration    11          0.657              1.779              1.804
 Vibration    12          0.673              1.731              1.604
 Vibration    13          0.680              1.712              1.538
 Vibration    14          0.682              1.703              1.509
 Vibration    15          0.692              1.676              1.425
 Vibration    16          0.702              1.647              1.342
 Vibration    17          0.705              1.637              1.314
 Vibration    18          0.714              1.613              1.254
 Vibration    19          0.720              1.595              1.211
 Vibration    20          0.739              1.543              1.098
 Vibration    21          0.761              1.484              0.987
 Vibration    22          0.775              1.446              0.923
 Vibration    23          0.783              1.426              0.890
 Vibration    24          0.799              1.384              0.828
 Vibration    25          0.810              1.357              0.791
 Vibration    26          0.847              1.269              0.680
 Vibration    27          0.853              1.255              0.664
 Vibration    28          0.874              1.208              0.613
 Vibration    29          0.905              1.139              0.544
 Vibration    30          0.930              1.087              0.496
 Vibration    31          0.953              1.041              0.457
 Vibration    32          0.967              1.014              0.436

 Normal termination of Gaussian 09 at Thu Mar 24 12:14:12 2016.
