 Gaussian 09, Revision B.01,
 Gaussian 09:  EM64L-G09RevB.01 12-Aug-2010

 ------------------------------------------------
 # freq=raman b3lyp/6-31+g(d,p) geom=connectivity
 ------------------------------------------------

 ------------
 310 7000.com
 ------------
 Symbolic Z-matrix:
 Charge =  0 Multiplicity = 1

                         Standard orientation:
 ---------------------------------------------------------------------
 Center     Atomic      Atomic             Coordinates (Angstroms)
 Number     Number       Type             X           Y           Z
 ---------------------------------------------------------------------
      1          8           0        5.000163   -0.302023   -0.541733
      2          6           0        3.742706   -0.066840    0.109176
      3          6           0        3.189513    1.268072   -0.362630
      4          8           0        4.020040    2.377126    0.010601
      5          1           0        4.945845    2.053846   -0.185001
      6          6           0        1.824513    1.497414    0.266641
      7          8           0        1.249960    2.731636   -0.187546
      8          1           0        0.307221    2.904181    0.097333
      9          6           0        3.182765   -2.572249    0.294529
     10          8           0        4.159863   -3.371276   -0.387796
     11          1           0        4.189384   -4.346072   -0.167574
     12          6           0        2.732052   -1.180299   -0.116934
     13          8           0        1.468068   -0.857289    0.480041
     14          6           0        0.895548    0.341260   -0.063910
     15          8           0       -0.300897    0.566844    0.694254
     16          6           0       -1.484526    0.209124   -0.033022
     17          6           0       -2.045510   -1.137950    0.391738
     18          8           0       -1.032797   -2.071514   -0.011086
     19          1           0       -0.155874   -1.818945    0.398525
     20          6           0       -3.412290   -1.560188   -0.121570
     21          8           0       -3.975514   -2.781226    0.378371
     22          1           0       -4.790272   -2.974739   -0.168706
     23          6           0       -2.158430    2.635164   -0.279556
     24          8           0       -1.189792    3.363652    0.489003
     25          1           0       -1.164132    4.306794    0.159830
     26          6           0       -2.573761    1.247652    0.180983
     27          8           0       -3.807409    0.857781   -0.439853
     28          6           0       -4.348931   -0.375965    0.056405
     29          8           0       -5.494273   -0.627277   -0.771114
     30          1           0       -6.241990   -0.866464   -0.218566
     31          1           0       -4.640528   -0.275254    1.080967
     32          1           0       -3.301761   -1.699501   -1.176689
     33          1           0       -2.089250   -1.145961    1.460814
     34          1           0       -1.247568    0.169202   -1.075690
     35          1           0       -2.753314    1.304538    1.234276
     36          1           0       -3.043623    3.234198   -0.329471
     37          1           0       -1.773137    2.540625   -1.273292
     38          1           0        0.702176    0.260588   -1.113195
     39          1           0        1.942823    1.546953    1.328926
     40          1           0        3.086849    1.248920   -1.427521
     41          1           0        5.669176   -0.501644    0.117184
     42          1           0        3.924312    0.003984    1.161271
     43          1           0        2.564888   -1.221068   -1.173009
     44          1           0        2.294245   -3.167243    0.332132
     45          1           0        3.533324   -2.479567    1.301216
 ---------------------------------------------------------------------

 SCF Done:  E(RB3LYP) =  -1297.93633604     A.U. after   13 cycles

 The electronic state is 1-A.
 Alpha  occ. eigenvalues --  -19.20363 -19.19860 -19.19793 -19.19300 -19.18931
 Alpha  occ. eigenvalues --  -19.18186 -19.17852 -19.16949 -19.15945 -19.14589
 Alpha  occ. eigenvalues --  -19.12994 -10.31382 -10.31082 -10.26614 -10.26562
 Alpha  occ. eigenvalues --  -10.25977 -10.25967 -10.25692 -10.25460 -10.25086
 Alpha  occ. eigenvalues --  -10.24898 -10.24314 -10.24035  -1.10609  -1.09335
 Alpha  occ. eigenvalues --   -1.06407  -1.05701  -1.04708  -1.04044  -1.03015
 Alpha  occ. eigenvalues --   -1.02389  -1.01989  -1.00973  -0.99055  -0.82372
 Alpha  occ. eigenvalues --   -0.80592  -0.79748  -0.78586  -0.72462  -0.70403
 Alpha  occ. eigenvalues --   -0.67413  -0.65298  -0.63674  -0.63043  -0.61699
 Alpha  occ. eigenvalues --   -0.60356  -0.56937  -0.56073  -0.55297  -0.54977
 Alpha  occ. eigenvalues --   -0.54386  -0.54113  -0.53119  -0.52466  -0.51297
 Alpha  occ. eigenvalues --   -0.50901  -0.50753  -0.50227  -0.48355  -0.46820
 Alpha  occ. eigenvalues --   -0.46594  -0.45385  -0.44705  -0.44038  -0.43763
 Alpha  occ. eigenvalues --   -0.43051  -0.42141  -0.40830  -0.40372  -0.39626
 Alpha  occ. eigenvalues --   -0.39190  -0.38308  -0.37529  -0.36654  -0.35827
 Alpha  occ. eigenvalues --   -0.35465  -0.34765  -0.34562  -0.33798  -0.33314
 Alpha  occ. eigenvalues --   -0.32753  -0.31788  -0.31298  -0.30743  -0.29954
 Alpha  occ. eigenvalues --   -0.29560  -0.28617  -0.28480  -0.27393  -0.26621
 Alpha  occ. eigenvalues --   -0.26303
 Alpha virt. eigenvalues --   -0.02183  -0.02038  -0.01871  -0.00421   0.00191
 Alpha virt. eigenvalues --    0.00782   0.01799   0.02349   0.02764   0.03535
 Alpha virt. eigenvalues --    0.03741   0.04477   0.05028   0.05167   0.05477

 Mulliken atomic charges:
              1
     1  O   -0.520393
     2  C   -0.302530
     3  C    0.190897
     4  O   -0.493150
     5  H    0.350276
     6  C   -0.137244
     7  O   -0.595089
     8  H    0.480540
     9  C   -0.074233
    10  O   -0.563322
    11  H    0.370215
    12  C    0.313667
    13  O   -0.412552
    14  C    0.179459
    15  O   -0.323916
    16  C    0.087215
    17  C    0.050675
    18  O   -0.522656
    19  H    0.399880
    20  C   -0.015520
    21  O   -0.507834
    22  H    0.354540
    23  C    0.035730
    24  O   -0.622148
    25  H    0.392973
    26  C   -0.183404
    27  O   -0.315259
    28  C    0.288777
    29  O   -0.569709
    30  H    0.365461
    31  H    0.131493
    32  H    0.152745
    33  H    0.141766
    34  H    0.125596
    35  H    0.139274
    36  H    0.146059
    37  H    0.146816
    38  H    0.128509
    39  H    0.142965
    40  H    0.138920
    41  H    0.367866
    42  H    0.136824
    43  H    0.136318
    44  H    0.139145
    45  H    0.124358
 Sum of Mulliken atomic charges =   0.00000

 Dipole moment (field-independent basis, Debye):
    X=             -2.0462    Y=             -0.6528    Z=              1.8511  Tot=              2.8354
 Quadrupole moment (field-independent basis, Debye-Ang):
   XX=           -115.2629   YY=           -136.0396   ZZ=           -142.4727
   XY=            -14.6663   XZ=              4.2487   YZ=             -3.7378

  Exact polarizability: 228.452   1.329 193.919   0.608  -0.453 141.128
 Approx polarizability: 264.538   0.996 248.842   1.043   1.165 231.407

 ******    7 imaginary frequencies (negative Signs) ******

                     1                      2                      3
                     A                      A                      A
 Frequencies --  -355.0294              -313.7091              -267.5587
 Red. masses --     1.6871                 1.1768                 1.7381
 Frc consts  --     0.1253                 0.0682                 0.0733
 IR Inten    --    10.5431               137.9615                 6.6027
 Raman Activ --     0.0837                 1.3915                 0.0545

                     4                      5                      6
                     A                      A                      A
 Frequencies --  -234.5062               -80.0898               -53.3299
 Red. masses --     1.1660                 6.6887                 6.2466
 Frc consts  --     0.0378                 0.0253                 0.0105
 IR Inten    --   112.3002                 1.3380                 0.1277
 Raman Activ --     0.8041                 0.0324                 0.0254

                     7                      8                      9
                     A                      A                      A
 Frequencies --   -32.5462                54.1969                69.4264
 Red. masses --     7.1106                 7.0013                 6.2997
 Frc consts  --     0.0044                 0.0121                 0.0179
 IR Inten    --     2.5999                 1.1096                 2.7988
 Raman Activ --     0.0469                 0.0613                 0.0345

                    10                     11                     12
                     A                      A                      A
 Frequencies --    85.8543                90.3409               112.9230
 Red. masses --     6.4853                 6.5144                 5.5686
 Frc consts  --     0.0282                 0.0313                 0.0418
 IR Inten    --     2.2392                 0.6073                 3.5715
 Raman Activ --     0.0599                 0.2727                 0.1402

                    13                     14                     15
                     A                      A                      A
 Frequencies --   157.9543               174.8218               180.5708
 Red. masses --     6.5109                 5.3630                 7.9611
 Frc consts  --     0.0957                 0.0966                 0.1529
 IR Inten    --     2.2776                 6.1604                 0.4334
 Raman Activ --     0.2167                 0.1030                 1.0423

                    16                     17                     18
                     A                      A                      A
 Frequencies --   218.6281               233.2159               252.6633
 Red. masses --     7.4006                 5.6931                 4.7916
 Frc consts  --     0.2084                 0.1824                 0.1802
 IR Inten    --     0.5789                 4.2311                29.7004
 Raman Activ --     3.2282                 0.0922                 0.1581

                    19                     20                     21
                     A                      A                      A
 Frequencies --   273.7573               286.6318               301.0752
 Red. masses --     4.7715                 5.3064                 5.3215
 Frc consts  --     0.2107                 0.2569                 0.2842
 IR Inten    --     3.1210                 6.4870                 5.6459
 Raman Activ --     0.0348                 0.1097                 0.5112

                    22                     23                     24
                     A                      A                      A
 Frequencies --   304.6870               311.1731               316.0697
 Red. masses --     4.3351                 6.8846                 5.9415
 Frc consts  --     0.2371                 0.3928                 0.3497
 IR Inten    --     1.6594                 5.2623                 3.7714
 Raman Activ --     1.4094                 5.5042                 1.7874

                    25                     26                     27
                     A                      A                      A
 Frequencies --   348.0151               364.6548               383.2028
 Red. masses --     6.5425                 5.1950                 6.7759
 Frc consts  --     0.4669                 0.4070                 0.5862
 IR Inten    --     9.6297                 3.4833                 1.9299
 Raman Activ --     2.8262                 0.2787                 0.8084

                    28                     29                     30
                     A                      A                      A
 Frequencies --   405.4727               426.8995               431.3779
 Red. masses --     4.1697                 4.8952                 5.0740
 Frc consts  --     0.4039                 0.5256                 0.5563
 IR Inten    --    27.6072                 4.1022                 0.9104
 Raman Activ --     2.4694                 4.8233                 2.4015

                    31                     32                     33
                     A                      A                      A
 Frequencies --   444.5008               475.2905               487.3072
 Red. masses --     5.7669                 5.0053                 3.8366
 Frc consts  --     0.6713                 0.6662                 0.5368
 IR Inten    --     1.9348                 4.6462                16.5888
 Raman Activ --     4.1700                 2.3377                 0.5591

                    34                     35                     36
                     A                      A                      A
 Frequencies --   518.9120               520.0045               564.6248
 Red. masses --     4.2124                 2.8483                 1.2799
 Frc consts  --     0.6683                 0.4538                 0.2404
 IR Inten    --     5.9939                18.5840                68.0213
 Raman Activ --     1.8516                 3.9975                 2.8405

                    37                     38                     39
                     A                      A                      A
 Frequencies --   567.7901               579.8569               591.1244
 Red. masses --     3.2742                 2.7611                 5.4937
 Frc consts  --     0.6219                 0.5470                 1.1310
 IR Inten    --    16.0604                64.1445                 5.5182
 Raman Activ --     0.7397                 0.1771                 1.4621

                    40                     41                     42
                     A                      A                      A
 Frequencies --   607.3352               635.5734               678.5427
 Red. masses --     4.8657                 3.6841                 5.3342
 Frc consts  --     1.0574                 0.8768                 1.4470
 IR Inten    --    44.6080                36.2889                11.8442
 Raman Activ --     0.8844                 1.0240                 1.3111

                    43                     44                     45
                     A                      A                      A
 Frequencies --   726.1055               748.7030               753.5398
 Red. masses --     1.0697                 1.0927                 1.0789
 Frc consts  --     0.3323                 0.3609                 0.3609
 IR Inten    --    88.5326               163.4223                87.0449
 Raman Activ --     1.6737                 2.8626                 1.3542

                    46                     47                     48
                     A                      A                      A
 Frequencies --   828.4837               836.5595               846.9468
 Red. masses --     1.1130                 1.8080                 1.3304
 Frc consts  --     0.4501                 0.7455                 0.5623
 IR Inten    --   134.4887                 9.1780                24.0725
 Raman Activ --     3.1570                 0.6001                 0.3212

                    49                     50                     51
                     A                      A                      A
 Frequencies --   895.8873               946.7855               970.6631
 Red. masses --     1.2786                 4.4855                 4.6782
 Frc consts  --     0.6046                 2.3690                 2.5970
 IR Inten    --    55.7619               129.4801                37.3537
 Raman Activ --     0.5108                 3.1609                 0.5566

                    52                     53                     54
                     A                      A                      A
 Frequencies --   988.1932               995.2555               996.5786
 Red. masses --     5.4939                 4.8593                 5.4011
 Frc consts  --     3.1610                 2.8359                 3.1605
 IR Inten    --    20.3958                76.1600                66.5828
 Raman Activ --     2.9642                 1.1782                 0.7328

                    55                     56                     57
                     A                      A                      A
 Frequencies --  1013.0571              1022.8816              1036.4317
 Red. masses --     6.1829                 6.0082                 5.3608
 Frc consts  --     3.7386                 3.7038                 3.3928
 IR Inten    --   382.9670                19.9779                72.3208
 Raman Activ --     1.8785                 1.9269                 3.1964

                    58                     59                     60
                     A                      A                      A
 Frequencies --  1040.5452              1061.4324              1067.9092
 Red. masses --     5.0865                 3.9906                 3.3186
 Frc consts  --     3.2448                 2.6489                 2.2298
 IR Inten    --   401.3049               178.1088               105.7431
 Raman Activ --     1.4689                 7.6856                 2.8032

                    61                     62                     63
                     A                      A                      A
 Frequencies --  1073.6120              1084.5458              1091.4884
 Red. masses --     3.1902                 5.7451                 4.7676
 Frc consts  --     2.1665                 3.9815                 3.3465
 IR Inten    --    18.2093                85.4131                37.2202
 Raman Activ --     7.3106                 1.3526                 7.1896

                    64                     65                     66
                     A                      A                      A
 Frequencies --  1100.9832              1113.2573              1116.6198
 Red. masses --     2.6366                 2.9994                 3.1104
 Frc consts  --     1.8830                 2.1902                 2.2850
 IR Inten    --    56.0380                14.6283                10.4163
 Raman Activ --     8.6903                 9.0472                 3.3419

                    67                     68                     69
                     A                      A                      A
 Frequencies --  1122.9426              1126.2440              1135.5560
 Red. masses --     2.1793                 2.3747                 2.6890
 Frc consts  --     1.6192                 1.7747                 2.0430
 IR Inten    --    78.1218                38.5390                 7.4055
 Raman Activ --     2.0778                 2.8446                10.2460

                    70                     71                     72
                     A                      A                      A
 Frequencies --  1150.0251              1155.6038              1158.7076
 Red. masses --     3.2923                 1.5279                 2.0640
 Frc consts  --     2.5655                 1.2021                 1.6327
 IR Inten    --    24.4148                10.6008                 7.0862
 Raman Activ --     6.2548                 5.4229                 1.4623

                    73                     74                     75
                     A                      A                      A
 Frequencies --  1164.5858              1168.8732              1188.7871
 Red. masses --     1.8825                 1.7498                 1.9886
 Frc consts  --     1.5043                 1.4085                 1.6558
 IR Inten    --     9.2384                10.6277                 8.3649
 Raman Activ --     3.9428                 3.3863                 1.6403

                    76                     77                     78
                     A                      A                      A
 Frequencies --  1200.4664              1215.0952              1224.6053
 Red. masses --     1.4649                 1.2765                 1.3682
 Frc consts  --     1.2438                 1.1104                 1.2089
 IR Inten    --    12.8657                23.7323                 2.5757
 Raman Activ --     4.9077                 2.7368                 1.0564

                    79                     80                     81
                     A                      A                      A
 Frequencies --  1238.0482              1249.7294              1261.4251
 Red. masses --     1.3153                 1.1802                 1.1980
 Frc consts  --     1.1879                 1.0860                 1.1231
 IR Inten    --    17.8798                 8.7370                33.1071
 Raman Activ --     0.7590                 2.5255                 1.3047

                    82                     83                     84
                     A                      A                      A
 Frequencies --  1268.5710              1276.0626              1279.9601
 Red. masses --     1.2353                 1.2681                 1.2389
 Frc consts  --     1.1712                 1.2166                 1.1958
 IR Inten    --    17.7219                12.8164                 5.6970
 Raman Activ --     1.1154                 2.8502                 2.6418

                    85                     86                     87
                     A                      A                      A
 Frequencies --  1289.8454              1301.5523              1311.6079
 Red. masses --     1.3069                 1.2802                 1.3001
 Frc consts  --     1.2810                 1.2777                 1.3177
 IR Inten    --     2.6809                51.5764                16.6863
 Raman Activ --     4.3754                 5.0989                 2.9944

                    88                     89                     90
                     A                      A                      A
 Frequencies --  1316.1292              1321.4904              1329.8681
 Red. masses --     1.2824                 1.3369                 1.2986
 Frc consts  --     1.3088                 1.3755                 1.3532
 IR Inten    --    12.2259                 7.8947                11.1181
 Raman Activ --    10.2241                 2.8985                 0.3000

                    91                     92                     93
                     A                      A                      A
 Frequencies --  1331.4979              1338.6837              1342.7052
 Red. masses --     1.3325                 1.2227                 1.3031
 Frc consts  --     1.3919                 1.2910                 1.3842
 IR Inten    --    39.2330                15.2102                36.9016
 Raman Activ --     3.0883                 9.1860                 3.9430

                    94                     95                     96
                     A                      A                      A
 Frequencies --  1353.2740              1368.7824              1373.4657
 Red. masses --     1.3358                 1.4025                 1.6005
 Frc consts  --     1.4413                 1.5482                 1.7788
 IR Inten    --    54.7665                11.7378                11.2877
 Raman Activ --     2.8567                 4.2881                11.1448

                    97                     98                     99
                     A                      A                      A
 Frequencies --  1379.2472              1394.6870              1409.3909
 Red. masses --     1.4929                 1.5268                 1.4017
 Frc consts  --     1.6733                 1.7497                 1.6405
 IR Inten    --     8.8214                 2.6581                 1.2452
 Raman Activ --     6.9722                 4.3511                 9.7746

                   100                    101                    102
                     A                      A                      A
 Frequencies --  1428.8486              1433.2945              1439.2839
 Red. masses --     1.3128                 1.3271                 1.3685
 Frc consts  --     1.5792                 1.6063                 1.6703
 IR Inten    --    38.7958                 5.8486                12.0487
 Raman Activ --     1.2486                 1.2308                 1.2850

                   103                    104                    105
                     A                      A                      A
 Frequencies --  1454.3670              1468.5027              1474.5398
 Red. masses --     1.4998                 1.3128                 1.3051
 Frc consts  --     1.8691                 1.6681                 1.6719
 IR Inten    --    26.8222                26.0922                39.8820
 Raman Activ --     1.2217                 2.6229                 1.8169

                   106                    107                    108
                     A                      A                      A
 Frequencies --  1476.6498              1485.5881              3226.0849
 Red. masses --     1.1409                 1.0922                 1.0714
 Frc consts  --     1.4657                 1.4202                 6.5700
 IR Inten    --     7.6076                13.2774              1197.3104
 Raman Activ --     5.1723                 4.5169               158.4898

                   109                    110                    111
                     A                      A                      A
 Frequencies --  3260.7151              3273.1073              3278.8879
 Red. masses --     1.0606                 1.0614                 1.0807
 Frc consts  --     6.6438                 6.6994                 6.8456
 IR Inten    --    31.9180                35.1841                22.1865
 Raman Activ --   109.5319               175.4785                46.6734

                   112                    113                    114
                     A                      A                      A
 Frequencies --  3281.7996              3284.7234              3291.3696
 Red. masses --     1.0811                 1.0818                 1.0839
 Frc consts  --     6.8603                 6.8770                 6.9182
 IR Inten    --     8.3400                18.5981                 9.3883
 Raman Activ --    36.7070               134.2242                62.7766

                   115                    116                    117
                     A                      A                      A
 Frequencies --  3292.4849              3298.1879              3300.4397
 Red. masses --     1.0839                 1.0849                 1.0869
 Frc consts  --     6.9229                 6.9532                 6.9756
 IR Inten    --     2.8372                 3.8276                 4.4344
 Raman Activ --    90.0579                57.1457                14.6107

                   118                    119                    120
                     A                      A                      A
 Frequencies --  3306.8061              3310.3219              3312.9544
 Red. masses --     1.0869                 1.0878                 1.1002
 Frc consts  --     7.0025                 7.0234                 7.1148
 IR Inten    --    39.0415                41.1483                43.7951
 Raman Activ --    46.2157                 7.5365                41.3197

                   121                    122                    123
                     A                      A                      A
 Frequencies --  3318.1735              3327.6613              3330.9648
 Red. masses --     1.0858                 1.1056                 1.0705
 Frc consts  --     7.0434                 7.2133                 6.9983
 IR Inten    --   105.1724                68.5116               483.3162
 Raman Activ --     4.8457                66.3058               156.4366

                   124                    125                    126
                     A                      A                      A
 Frequencies --  3386.4094              3389.0665              3391.5983
 Red. masses --     1.0650                 1.0661                 1.0691
 Frc consts  --     7.1960                 7.2144                 7.2455
 IR Inten    --    24.8226                44.1794                77.5694
 Raman Activ --   104.3907               127.9565               195.4793

                   127                    128                    129
                     A                      A                      A
 Frequencies --  3407.1082              3917.8793              3921.1977
 Red. masses --     1.0667                 1.0678                 1.0675
 Frc consts  --     7.2954                 9.6566                 9.6702
 IR Inten    --    76.0861                72.1252                68.3709
 Raman Activ --   120.9658                90.6386               117.5305

 - Thermochemistry -
 -------------------
 Temperature   298.150 Kelvin.  Pressure   1.00000 Atm.
 Atom     1 has atomic number  8 and mass  15.99491

 Molecular mass:   342.11621 amu.
 Principal axes and moments of inertia in atomic units:
                           1         2         3
     Eigenvalues --  4523.75343********************
           X            0.99997  -0.00728   0.00071
           Y            0.00728   0.99997  -0.00390
           Z           -0.00069   0.00391   0.99999
 This molecule is an asymmetric top.
 Rotational symmetry number  1.
 Warning -- assumption of classical behavior for rotation
           may cause significant error
 Rotational temperatures (Kelvin)      0.01915     0.00703     0.00529
 Rotational constants (GHZ):           0.39895     0.14655     0.11018
    7 imaginary frequencies ignored.
 Zero-point vibrational energy     976915.2 (Joules/Mol)
                                  233.48834 (Kcal/Mol)
 Warning -- explicit consideration of  33 degrees of freedom as
           vibrations may cause significant error
 Vibrational temperatures:     77.98    99.89   123.53   129.98   162.47
          (Kelvin)            227.26   251.53   259.80   314.56   335.55
                              363.53   393.88   412.40   433.18   438.38
                              447.71   454.75   500.72   524.66   551.34
                              583.38   614.21   620.66   639.54   683.84
                              701.13   746.60   748.17   812.37   816.92
                              834.28   850.50   873.82   914.45   976.27
                             1044.70  1077.22  1084.17  1192.00  1203.62
                             1218.57  1288.98  1362.21  1396.57  1421.79
                             1431.95  1433.85  1457.56  1471.70  1491.19
                             1497.11  1527.16  1536.48  1544.69  1560.42
                             1570.41  1584.07  1601.73  1606.56  1615.66
                             1620.41  1633.81  1654.63  1662.65  1667.12
                             1675.58  1681.75  1710.40  1727.20  1748.25
                             1761.93  1781.27  1798.08  1814.91  1825.19
                             1835.97  1841.57  1855.80  1872.64  1887.11
                             1893.61  1901.33  1913.38  1915.73  1926.06
                             1931.85  1947.06  1969.37  1976.11  1984.43
                             2006.64  2027.80  2055.79  2062.19  2070.81
                             2092.51  2112.85  2121.53  2124.57  2137.43
                             4641.61  4691.44  4709.27  4717.58  4721.77
                             4725.98  4735.54  4737.15  4745.35  4748.59
                             4757.75  4762.81  4766.60  4774.11  4787.76
                             4792.51  4872.28  4876.10  4879.75  4902.06
                             5636.95  5641.72

 Zero-point correction=                           0.372087 (Hartree/Particle)
 Thermal correction to Energy=                    0.390417
 Thermal correction to Enthalpy=                  0.391361
 Thermal correction to Gibbs Free Energy=         0.326756
 Sum of electronic and zero-point Energies=          -1297.564249
 Sum of electronic and thermal Energies=             -1297.545919
 Sum of electronic and thermal Enthalpies=           -1297.544975
 Sum of electronic and thermal Free Energies=        -1297.609580

                     E (Thermal)             CV                S
                      KCal/Mol        Cal/Mol-Kelvin    Cal/Mol-Kelvin
 Total                  244.990             75.869            135.972
 Electronic               0.000              0.000              0.000
 Translational            0.889              2.981             43.384
 Rotational               0.889              2.981             35.166
 Vibrational            243.213             69.907             57.422
 Vibration     1          0.596              1.976              4.658
 Vibration     2          0.598              1.969              4.170
 Vibration     3          0.601              1.959              3.752
 Vibration     4          0.602              1.956              3.653
 Vibration     5          0.607              1.939              3.218
 Vibration     6          0.621              1.894              2.574
 Vibration     7          0.627              1.873              2.383
 Vibration     8          0.630              1.866              2.323
 Vibration     9          0.646              1.813              1.970
 Vibration    10          0.654              1.790              1.854
 Vibration    11          0.664              1.758              1.712
 Vibration    12          0.676              1.722              1.572
 Vibration    13          0.684              1.699              1.494
 Vibration    14          0.693              1.672              1.411
 Vibration    15          0.696              1.665              1.391
 Vibration    16          0.700              1.652              1.356
 Vibration    17          0.703              1.643              1.330
 Vibration    18          0.726              1.579              1.175
 Vibration    19          0.738              1.545              1.102
 Vibration    20          0.752              1.506              1.026
 Vibration    21          0.770              1.458              0.943
 Vibration    22          0.789              1.412              0.869
 Vibration    23          0.792              1.402              0.854
 Vibration    24          0.804              1.373              0.813
 Vibration    25          0.832              1.305              0.723
 Vibration    26          0.843              1.278              0.691
 Vibration    27          0.874              1.208              0.612
 Vibration    28          0.875              1.206              0.610
 Vibration    29          0.920              1.108              0.515
 Vibration    30          0.924              1.101              0.509
 Vibration    31          0.936              1.075              0.486
 Vibration    32          0.949              1.051              0.465
 Vibration    33          0.966              1.016              0.437

 Normal termination of Gaussian 09 at Thu Jan 21 05:03:32 2016.
