 Gaussian 09, Revision B.01,
 Gaussian 09:  EM64L-G09RevB.01 12-Aug-2010

 --------------------------------------------------
 # freq=raman b3lyp/6-31+g(2df,p) geom=connectivity
 --------------------------------------------------

 -------------
 550 10000.com
 -------------
 Symbolic Z-matrix:
 Charge =  0 Multiplicity = 1

                         Standard orientation:
 ---------------------------------------------------------------------
 Center     Atomic      Atomic             Coordinates (Angstroms)
 Number     Number       Type             X           Y           Z
 ---------------------------------------------------------------------
      1          8           0       -5.016022    0.246938   -0.438462
      2          6           0       -3.852026   -0.223111    0.256891
      3          6           0       -3.117858   -1.353956   -0.444424
      4          8           0       -4.060883   -2.429722   -0.558310
      5          1           0       -4.983662   -2.077919   -0.401252
      6          6           0       -1.677896   -1.762373   -0.181790
      7          8           0       -0.958376   -2.680948   -1.017823
      8          1           0       -1.555479   -3.470678   -1.162648
      9          6           0       -3.254807    2.277008    0.751618
     10          8           0       -2.707732    3.573827    0.477185
     11          1           0       -3.210597    4.414226    0.682825
     12          6           0       -2.866498    0.929533    0.163805
     13          8           0       -1.662904    0.479719    0.802294
     14          6           0       -0.983275   -0.413340   -0.093394
     15          8           0        0.206512   -0.730263    0.643351
     16          6           0        1.312767   -0.214193   -0.111024
     17          6           0        1.547469    1.273215    0.094412
     18          8           0        0.608199    2.077371   -0.632834
     19          1           0       -0.066867    2.362502    0.047693
     20          6           0        2.852602    1.522453   -0.643176
     21          8           0        3.058888    2.921088   -0.395457
     22          1           0        2.324785    3.183437   -1.020909
     23          6           0        2.305210   -2.499364    0.342053
     24          8           0        3.292824   -3.348431    0.943553
     25          1           0        3.407380   -3.191512    1.924192
     26          6           0        2.456693   -0.997033    0.512963
     27          8           0        3.766395   -0.589794    0.091428
     28          6           0        4.052195    0.810359   -0.039715
     29          8           0        5.359985    0.831483   -0.628470
     30          1           0       -5.792476    0.112121    0.109757
     31          1           0       -3.143990    2.153952    1.808725
     32          1           0       -4.299659    2.373446    0.542132
     33          1           0       -2.648109    1.082780   -0.872400
     34          1           0       -4.071441   -0.466698    1.275430
     35          1           0       -3.052555   -0.987595   -1.447627
     36          1           0       -1.660364   -2.183505    0.801694
     37          1           0       -0.776330    0.020798   -1.049218
     38          1           0        5.992254    0.446132   -0.017454
     39          1           0        2.294641   -2.707051   -0.707544
     40          1           0        1.352123   -2.776858    0.741457
     41          1           0        2.408137   -0.807406    1.564906
     42          1           0        1.211347   -0.449273   -1.149942
     43          1           0        1.607960    1.542639    1.128168
     44          1           0        2.758354    1.321776   -1.689954
     45          1           0        4.161999    1.199339    0.951011
 ---------------------------------------------------------------------

 SCF Done:  E(RB3LYP) =  -1297.95460188     A.U. after   14 cycles

 The electronic state is 1-A.
 Alpha  occ. eigenvalues --  -19.20005 -19.18418 -19.18254 -19.17621 -19.17058
 Alpha  occ. eigenvalues --  -19.16966 -19.16792 -19.15305 -19.14725 -19.14664
 Alpha  occ. eigenvalues --  -19.14364 -10.30176 -10.28699 -10.28034 -10.26403
 Alpha  occ. eigenvalues --  -10.25981 -10.25916 -10.25097 -10.24959 -10.24501
 Alpha  occ. eigenvalues --  -10.24329 -10.23714 -10.21912  -1.10215  -1.07964
 Alpha  occ. eigenvalues --   -1.06705  -1.05283  -1.04814  -1.03946  -1.03160
 Alpha  occ. eigenvalues --   -1.02714  -1.01524  -1.00772  -0.99478  -0.82279
 Alpha  occ. eigenvalues --   -0.81988  -0.78892  -0.77339  -0.72578  -0.69410
 Alpha  occ. eigenvalues --   -0.67336  -0.64785  -0.63461  -0.62831  -0.61773
 Alpha  occ. eigenvalues --   -0.60556  -0.57518  -0.55711  -0.55360  -0.54671
 Alpha  occ. eigenvalues --   -0.53514  -0.53009  -0.52903  -0.51892  -0.50798
 Alpha  occ. eigenvalues --   -0.50356  -0.49802  -0.48004  -0.47806  -0.46629
 Alpha  occ. eigenvalues --   -0.45847  -0.45218  -0.44802  -0.43946  -0.43555
 Alpha  occ. eigenvalues --   -0.42699  -0.42461  -0.41512  -0.40025  -0.39185
 Alpha  occ. eigenvalues --   -0.38578  -0.38298  -0.37672  -0.37279  -0.37091
 Alpha  occ. eigenvalues --   -0.36521  -0.34711  -0.34468  -0.33892  -0.32882
 Alpha  occ. eigenvalues --   -0.32387  -0.31560  -0.31117  -0.29955  -0.29765
 Alpha  occ. eigenvalues --   -0.29493  -0.29209  -0.28448  -0.27418  -0.26196
 Alpha  occ. eigenvalues --   -0.25600
 Alpha virt. eigenvalues --   -0.03839  -0.02447  -0.00748  -0.00292   0.00713
 Alpha virt. eigenvalues --    0.00978   0.01611   0.01845   0.02636   0.02866
 Alpha virt. eigenvalues --    0.03467   0.04205   0.04463   0.05625   0.05747

 Mulliken atomic charges:
              1
     1  O   -0.444806
     2  C   -0.413597
     3  C    0.240622
     4  O   -0.512740
     5  H    0.338978
     6  C    0.001392
     7  O   -0.468884
     8  H    0.371294
     9  C   -0.583633
    10  O   -0.499316
    11  H    0.368549
    12  C    0.368060
    13  O   -0.112266
    14  C   -0.065675
    15  O    0.013155
    16  C    0.008777
    17  C   -0.079826
    18  O   -0.455244
    19  H    0.374548
    20  C   -0.096468
    21  O   -0.391650
    22  H    0.346413
    23  C   -0.186258
    24  O   -0.430278
    25  H    0.326582
    26  C   -0.198725
    27  O   -0.096374
    28  C    0.051049
    29  O   -0.431984
    30  H    0.347944
    31  H    0.149079
    32  H    0.148480
    33  H    0.131374
    34  H    0.146392
    35  H    0.122942
    36  H    0.134088
    37  H    0.167741
    38  H    0.340100
    39  H    0.156883
    40  H    0.167801
    41  H    0.102272
    42  H    0.130616
    43  H    0.155325
    44  H    0.145100
    45  H    0.112167
 Sum of Mulliken atomic charges =   0.00000

 Dipole moment (field-independent basis, Debye):
    X=             -8.3220    Y=              1.2407    Z=              3.3392  Tot=              9.0523
 Quadrupole moment (field-independent basis, Debye-Ang):
   XX=           -125.0843   YY=           -146.5760   ZZ=           -134.4013
   XY=             -6.8812   XZ=              1.1390   YZ=              1.2068

  Exact polarizability: 223.792  -2.595 200.191  -0.790   0.490 147.106
 Approx polarizability: 268.494  -5.902 261.958  -1.583  -0.616 244.230

 ******    7 imaginary frequencies (negative Signs) ******

                     1                      2                      3
                     A                      A                      A
 Frequencies --  -365.4599              -302.9247              -200.2291
 Red. masses --     1.6446                 1.1023                 1.8143
 Frc consts  --     0.1294                 0.0596                 0.0429
 IR Inten    --     9.8508               127.2451                 5.8369
 Raman Activ --     0.0440                 1.3815                 0.0951

                     4                      5                      6
                     A                      A                      A
 Frequencies --  -104.0927               -94.9008               -59.8006
 Red. masses --     3.4261                 2.1256                 6.4917
 Frc consts  --     0.0219                 0.0113                 0.0137
 IR Inten    --    20.1894                50.8142                 1.5672
 Raman Activ --     0.2914                 0.3391                 0.0436

                     7                      8                      9
                     A                      A                      A
 Frequencies --   -32.3975                27.7109                54.4745
 Red. masses --     6.2286                 5.9404                 3.8174
 Frc consts  --     0.0039                 0.0027                 0.0067
 IR Inten    --     6.2917                 3.2267                15.2124
 Raman Activ --     0.0644                 0.1075                 0.2253

                    10                     11                     12
                     A                      A                      A
 Frequencies --    68.1471                85.6717               103.0491
 Red. masses --     5.6683                 5.6422                 6.2080
 Frc consts  --     0.0155                 0.0244                 0.0388
 IR Inten    --     0.4708                 5.1381                 0.0473
 Raman Activ --     0.2325                 0.1935                 0.2148

                    13                     14                     15
                     A                      A                      A
 Frequencies --   119.4357               137.7311               179.2603
 Red. masses --     5.9894                 6.8086                 6.2966
 Frc consts  --     0.0503                 0.0761                 0.1192
 IR Inten    --     6.4279                 1.1583                 2.4138
 Raman Activ --     0.2540                 0.3966                 0.2219

                    16                     17                     18
                     A                      A                      A
 Frequencies --   210.2091               215.6062               252.1205
 Red. masses --     5.0168                 6.2801                 5.6038
 Frc consts  --     0.1306                 0.1720                 0.2099
 IR Inten    --     2.1222                 1.0008                 6.4654
 Raman Activ --     0.3652                 1.4149                 1.4256

                    19                     20                     21
                     A                      A                      A
 Frequencies --   260.8528               275.2919               288.1674
 Red. masses --     5.1284                 6.2018                 4.6484
 Frc consts  --     0.2056                 0.2769                 0.2274
 IR Inten    --     3.7016                 6.0400                 4.3584
 Raman Activ --     0.8155                 2.2443                 0.6959

                    22                     23                     24
                     A                      A                      A
 Frequencies --   315.7430               330.5227               337.4411
 Red. masses --     4.8344                 5.4896                 5.5820
 Frc consts  --     0.2840                 0.3533                 0.3745
 IR Inten    --     1.4431                 2.1432                 6.3876
 Raman Activ --     1.5053                 5.0769                 0.6088

                    25                     26                     27
                     A                      A                      A
 Frequencies --   345.4626               360.9166               363.7826
 Red. masses --     3.5755                 4.7187                 4.8822
 Frc consts  --     0.2514                 0.3621                 0.3807
 IR Inten    --     3.2926                 7.7827                 1.6301
 Raman Activ --     2.6546                 0.2024                 1.0337

                    28                     29                     30
                     A                      A                      A
 Frequencies --   401.4773               415.2694               436.2039
 Red. masses --     6.1569                 4.1580                 5.0074
 Frc consts  --     0.5847                 0.4225                 0.5614
 IR Inten    --     4.0983                12.5507                 2.6384
 Raman Activ --     4.8249                 5.5407                 0.9383

                    31                     32                     33
                     A                      A                      A
 Frequencies --   452.4704               475.5161               486.7194
 Red. masses --     3.3437                 3.8495                 3.8202
 Frc consts  --     0.4033                 0.5128                 0.5332
 IR Inten    --    25.0716                37.8180                 9.6217
 Raman Activ --     1.4618                 0.9999                 0.3589

                    34                     35                     36
                     A                      A                      A
 Frequencies --   511.3626               528.8794               543.9381
 Red. masses --     1.5304                 3.8266                 4.2356
 Frc consts  --     0.2358                 0.6306                 0.7383
 IR Inten    --    63.8106                19.1675                16.2806
 Raman Activ --     2.2653                 1.0923                 8.2569

                    37                     38                     39
                     A                      A                      A
 Frequencies --   570.2686               576.8110               605.2245
 Red. masses --     4.8405                 3.3728                 2.5738
 Frc consts  --     0.9275                 0.6612                 0.5555
 IR Inten    --     8.0231                10.8420                16.0582
 Raman Activ --     0.9667                 1.4214                 0.5895

                    40                     41                     42
                     A                      A                      A
 Frequencies --   606.4870               643.1741               666.3585
 Red. masses --     2.7055                 1.2327                 2.8184
 Frc consts  --     0.5863                 0.3004                 0.7373
 IR Inten    --    18.0358                61.4713                42.2096
 Raman Activ --     0.7069                 1.6559                 0.8518

                    43                     44                     45
                     A                      A                      A
 Frequencies --   670.0701               683.2480               712.5892
 Red. masses --     1.3071                 2.5546                 1.0866
 Frc consts  --     0.3458                 0.7026                 0.3251
 IR Inten    --   106.3617                10.1515               114.1745
 Raman Activ --     1.0090                 0.3715                 1.7712

                    46                     47                     48
                     A                      A                      A
 Frequencies --   727.0719               756.1524               834.2995
 Red. masses --     1.2576                 1.1439                 2.6141
 Frc consts  --     0.3917                 0.3853                 1.0721
 IR Inten    --   168.9696                93.4308                 6.2552
 Raman Activ --     2.0207                 1.8573                 2.4708

                    49                     50                     51
                     A                      A                      A
 Frequencies --   843.0775               953.9096               956.4650
 Red. masses --     2.7158                 6.0755                 5.8226
 Frc consts  --     1.1373                 3.2572                 3.1384
 IR Inten    --     2.2253               246.6157                61.0477
 Raman Activ --     2.7190                 1.7595                 2.2766

                    52                     53                     54
                     A                      A                      A
 Frequencies --   968.9153               981.7316               984.7753
 Red. masses --     4.6113                 6.0219                 4.2717
 Frc consts  --     2.5506                 3.4195                 2.4408
 IR Inten    --    22.1519                24.8522               136.3302
 Raman Activ --     3.1602                 4.3925                 0.5394

                    55                     56                     57
                     A                      A                      A
 Frequencies --  1005.7912              1013.7670              1029.6733
 Red. masses --     6.8491                 4.5715                 3.6533
 Frc consts  --     4.0822                 2.7681                 2.2821
 IR Inten    --   300.5855                96.9924               186.9898
 Raman Activ --     2.4666                 3.3118                 1.8391

                    58                     59                     60
                     A                      A                      A
 Frequencies --  1040.6440              1048.2129              1049.3245
 Red. masses --     3.0196                 4.5115                 3.5316
 Frc consts  --     1.9266                 2.9206                 2.2911
 IR Inten    --    96.0501               121.1881                20.5716
 Raman Activ --     5.7553                 4.4284                 8.7619

                    61                     62                     63
                     A                      A                      A
 Frequencies --  1054.4894              1067.6711              1074.1352
 Red. masses --     2.9025                 4.2057                 3.9915
 Frc consts  --     1.9016                 2.8246                 2.7133
 IR Inten    --    99.9786               111.8552                32.2202
 Raman Activ --     2.6053                 2.2622                 8.3293

                    64                     65                     66
                     A                      A                      A
 Frequencies --  1084.4913              1089.1625              1095.1335
 Red. masses --     2.9423                 2.6317                 2.6983
 Frc consts  --     2.0388                 1.8394                 1.9067
 IR Inten    --     8.6451                61.9373                22.6882
 Raman Activ --     4.7241                 9.2735                 7.2550

                    67                     68                     69
                     A                      A                      A
 Frequencies --  1100.5125              1117.8294              1123.0227
 Red. masses --     3.7691                 2.5230                 1.7837
 Frc consts  --     2.6895                 1.8574                 1.3254
 IR Inten    --    48.0004                 8.6879                33.5059
 Raman Activ --     1.7046                11.6508                 2.6455

                    70                     71                     72
                     A                      A                      A
 Frequencies --  1126.8931              1149.8593              1157.5829
 Red. masses --     3.0015                 2.5845                 1.9160
 Frc consts  --     2.2457                 2.0133                 1.5127
 IR Inten    --    93.3365                33.9848                13.8421
 Raman Activ --     6.5088                 1.3287                 2.3563

                    73                     74                     75
                     A                      A                      A
 Frequencies --  1167.0061              1169.3188              1172.7906
 Red. masses --     1.6351                 2.2627                 2.3833
 Frc consts  --     1.3120                 1.8228                 1.9314
 IR Inten    --     0.5859                 2.6677                74.5146
 Raman Activ --     0.8985                 2.0907                 4.1124

                    76                     77                     78
                     A                      A                      A
 Frequencies --  1186.4861              1201.6047              1232.3270
 Red. masses --     1.6128                 1.4942                 1.3468
 Frc consts  --     1.3377                 1.2711                 1.2050
 IR Inten    --     9.4413                 9.1822                16.2150
 Raman Activ --     6.0116                 2.0751                 2.1741

                    79                     80                     81
                     A                      A                      A
 Frequencies --  1238.7622              1240.1326              1245.3333
 Red. masses --     1.3098                 1.3831                 1.2252
 Frc consts  --     1.1842                 1.2533                 1.1195
 IR Inten    --    17.6875                19.9083                 3.1686
 Raman Activ --     4.4158                 3.2360                 1.5784

                    82                     83                     84
                     A                      A                      A
 Frequencies --  1268.2300              1275.9673              1278.9899
 Red. masses --     1.2443                 1.3315                 1.3039
 Frc consts  --     1.1792                 1.2773                 1.2567
 IR Inten    --     5.5786                 7.5865                28.2230
 Raman Activ --     0.5411                 2.2521                 1.7021

                    85                     86                     87
                     A                      A                      A
 Frequencies --  1284.8396              1300.4222              1311.9672
 Red. masses --     1.2474                 1.4201                 1.3427
 Frc consts  --     1.2133                 1.4149                 1.3617
 IR Inten    --     0.4675                 7.6830                10.7834
 Raman Activ --     1.6589                 6.0895                 3.8765

                    88                     89                     90
                     A                      A                      A
 Frequencies --  1313.1976              1323.8912              1329.6920
 Red. masses --     1.3111                 1.2584                 1.2340
 Frc consts  --     1.3321                 1.2995                 1.2855
 IR Inten    --    33.1646                13.2721                 3.8661
 Raman Activ --    10.9774                 1.7339                 0.8879

                    91                     92                     93
                     A                      A                      A
 Frequencies --  1333.5875              1345.1056              1354.2573
 Red. masses --     1.5019                 1.4104                 1.2091
 Frc consts  --     1.5737                 1.5035                 1.3065
 IR Inten    --     2.0220                57.7394                12.3621
 Raman Activ --     2.8825                 1.7292                 2.6359

                    94                     95                     96
                     A                      A                      A
 Frequencies --  1369.6401              1370.8839              1375.9308
 Red. masses --     1.2828                 1.3778                 1.4276
 Frc consts  --     1.4178                 1.5256                 1.5923
 IR Inten    --    10.7565                 1.9089                12.2703
 Raman Activ --     2.0329                15.0319                 2.4727

                    97                     98                     99
                     A                      A                      A
 Frequencies --  1386.2758              1394.4870              1405.2657
 Red. masses --     1.2162                 1.1014                 1.2015
 Frc consts  --     1.3771                 1.2619                 1.3979
 IR Inten    --     3.3843                24.2391                90.2832
 Raman Activ --     2.2345                 2.3117                 2.6913

                   100                    101                    102
                     A                      A                      A
 Frequencies --  1418.9133              1423.9017              1431.3227
 Red. masses --     1.2248                 1.4374                 1.4290
 Frc consts  --     1.4529                 1.7171                 1.7248
 IR Inten    --     2.7424                 5.4830                21.7206
 Raman Activ --     0.9809                 6.8921                 2.9351

                   103                    104                    105
                     A                      A                      A
 Frequencies --  1441.0578              1446.6040              1452.2073
 Red. masses --     1.1161                 1.0942                 1.2602
 Frc consts  --     1.3655                 1.3491                 1.5658
 IR Inten    --     4.1628                 4.5510                27.3849
 Raman Activ --     4.1294                 5.3577                 1.6649

                   106                    107                    108
                     A                      A                      A
 Frequencies --  1462.6420              1549.8534              3240.4448
 Red. masses --     1.4203                 1.2420                 1.0784
 Frc consts  --     1.7902                 1.7578                 6.6716
 IR Inten    --    81.2889                72.9513                17.9550
 Raman Activ --     2.8880                 1.3067                58.0318

                   109                    110                    111
                     A                      A                      A
 Frequencies --  3250.0698              3253.0422              3260.7771
 Red. masses --     1.0590                 1.0809                 1.0834
 Frc consts  --     6.5909                 6.7395                 6.7868
 IR Inten    --    26.5830                22.5907                40.7446
 Raman Activ --   134.5550                78.8477               104.8258

                   112                    113                    114
                     A                      A                      A
 Frequencies --  3272.4508              3273.0359              3274.4854
 Red. masses --     1.0812                 1.0617                 1.0806
 Frc consts  --     6.8221                 6.7014                 6.8263
 IR Inten    --     4.3551                19.1085                30.1235
 Raman Activ --    87.0071                73.5719                 9.3698

                   115                    116                    117
                     A                      A                      A
 Frequencies --  3283.2157              3292.9537              3296.5193
 Red. masses --     1.0855                 1.0858                 1.0880
 Frc consts  --     6.8941                 6.9368                 6.9658
 IR Inten    --     1.9500                13.5783                17.6093
 Raman Activ --     9.5726                57.6203                64.9762

                   118                    119                    120
                     A                      A                      A
 Frequencies --  3302.7079              3305.0637              3310.4796
 Red. masses --     1.0934                 1.0941                 1.0872
 Frc consts  --     7.0267                 7.0416                 7.0203
 IR Inten    --     7.9975                39.7942                47.2101
 Raman Activ --    47.2693                23.9233                 7.4712

                   121                    122                    123
                     A                      A                      A
 Frequencies --  3330.4537              3348.8598              3349.0162
 Red. masses --     1.1016                 1.0699                 1.0662
 Frc consts  --     7.1990                 7.0697                 7.0455
 IR Inten    --    28.4099               104.3071                41.5239
 Raman Activ --    50.9460               206.0762               113.7340

                   124                    125                    126
                     A                      A                      A
 Frequencies --  3358.5120              3360.8361              3361.2710
 Red. masses --     1.0719                 1.0655                 1.0662
 Frc consts  --     7.1237                 7.0911                 7.0976
 IR Inten    --    17.2889               119.2875                58.4583
 Raman Activ --    59.2303               140.9538               107.1151

                   127                    128                    129
                     A                      A                      A
 Frequencies --  3363.2682              3872.0855              3876.8059
 Red. masses --     1.0639                 1.0677                 1.0669
 Frc consts  --     7.0902                 9.4314                 9.4475
 IR Inten    --    18.9720                72.1395                82.0656
 Raman Activ --    19.8952               111.5069               112.8053

 - Thermochemistry -
 -------------------
 Temperature   298.150 Kelvin.  Pressure   1.00000 Atm.
 Atom     1 has atomic number  8 and mass  15.99491

 Molecular mass:   342.11621 amu.
 Principal axes and moments of inertia in atomic units:
                           1         2         3
     Eigenvalues --  4745.52515********************
           X            0.99998  -0.00653   0.00028
           Y            0.00653   0.99998   0.00152
           Z           -0.00029  -0.00152   1.00000
 This molecule is an asymmetric top.
 Rotational symmetry number  1.
 Warning -- assumption of classical behavior for rotation
           may cause significant error
 Rotational temperatures (Kelvin)      0.01825     0.00744     0.00558
 Rotational constants (GHZ):           0.38030     0.15508     0.11634
    7 imaginary frequencies ignored.
 Zero-point vibrational energy     969522.5 (Joules/Mol)
                                  231.72144 (Kcal/Mol)
 Warning -- explicit consideration of  33 degrees of freedom as
           vibrations may cause significant error
 Vibrational temperatures:     39.87    78.38    98.05   123.26   148.26
          (Kelvin)            171.84   198.16   257.92   302.44   310.21
                              362.74   375.31   396.08   414.61   454.28
                              475.55   485.50   497.04   519.28   523.40
                              577.64   597.48   627.60   651.00   684.16
                              700.28   735.74   760.94   782.60   820.49
                              829.90   870.78   872.60   925.38   958.74
                              964.08   983.04  1025.26  1046.09  1087.93
                             1200.37  1213.00  1372.46  1376.14  1394.05
                             1412.49  1416.87  1447.11  1458.58  1481.47
                             1497.25  1508.14  1509.74  1517.17  1536.14
                             1545.44  1560.34  1567.06  1575.65  1583.39
                             1608.31  1615.78  1621.35  1654.39  1665.50
                             1679.06  1682.39  1687.38  1707.09  1728.84
                             1773.04  1782.30  1784.27  1791.75  1824.70
                             1835.83  1840.18  1848.60  1871.02  1887.63
                             1889.40  1904.78  1913.13  1918.73  1935.30
                             1948.47  1970.60  1972.39  1979.65  1994.54
                             2006.35  2021.86  2041.50  2048.67  2059.35
                             2073.36  2081.34  2089.40  2104.41  2229.89
                             4662.27  4676.12  4680.40  4691.53  4708.32
                             4709.16  4711.25  4723.81  4737.82  4742.95
                             4751.85  4755.24  4763.04  4791.77  4818.26
                             4818.48  4832.14  4835.49  4836.11  4838.99
                             5571.06  5577.85

 Zero-point correction=                           0.369272 (Hartree/Particle)
 Thermal correction to Energy=                    0.388120
 Thermal correction to Enthalpy=                  0.389064
 Thermal correction to Gibbs Free Energy=         0.322425
 Sum of electronic and zero-point Energies=          -1297.585330
 Sum of electronic and thermal Energies=             -1297.566482
 Sum of electronic and thermal Enthalpies=           -1297.565538
 Sum of electronic and thermal Free Energies=        -1297.632177

                     E (Thermal)             CV                S
                      KCal/Mol        Cal/Mol-Kelvin    Cal/Mol-Kelvin
 Total                  243.549             77.097            140.254
 Electronic               0.000              0.000              0.000
 Translational            0.889              2.981             43.384
 Rotational               0.889              2.981             35.103
 Vibrational            241.771             71.136             61.766
 Vibration     1          0.593              1.984              5.987
 Vibration     2          0.596              1.976              4.648
 Vibration     3          0.598              1.969              4.206
 Vibration     4          0.601              1.959              3.757
 Vibration     5          0.605              1.947              3.396
 Vibration     6          0.609              1.933              3.109
 Vibration     7          0.614              1.916              2.835
 Vibration     8          0.629              1.868              2.336
 Vibration     9          0.642              1.825              2.042
 Vibration    10          0.645              1.817              1.996
 Vibration    11          0.664              1.759              1.716
 Vibration    12          0.669              1.744              1.656
 Vibration    13          0.677              1.719              1.563
 Vibration    14          0.685              1.696              1.485
 Vibration    15          0.703              1.644              1.332
 Vibration    16          0.713              1.615              1.258
 Vibration    17          0.718              1.601              1.224
 Vibration    18          0.724              1.585              1.187
 Vibration    19          0.735              1.553              1.118
 Vibration    20          0.737              1.547              1.106
 Vibration    21          0.767              1.467              0.957
 Vibration    22          0.779              1.437              0.908
 Vibration    23          0.797              1.391              0.839
 Vibration    24          0.811              1.355              0.788
 Vibration    25          0.832              1.304              0.722
 Vibration    26          0.843              1.279              0.692
 Vibration    27          0.866              1.225              0.630
 Vibration    28          0.884              1.186              0.590
 Vibration    29          0.899              1.153              0.557
 Vibration    30          0.926              1.096              0.504
 Vibration    31          0.933              1.081              0.491
 Vibration    32          0.964              1.021              0.441
 Vibration    33          0.965              1.018              0.439

 Normal termination of Gaussian 09 at Tue Feb 16 14:16:28 2016.
