 Gaussian 09, Revision B.01,
 Gaussian 09:  EM64L-G09RevB.01 12-Aug-2010

 -------------------------------------------------
 # freq=raman b3lyp/6-31+g(2d,p) geom=connectivity
 -------------------------------------------------

 -----------------
 290 5308/5308.com
 -----------------
 Symbolic Z-matrix:
 Charge =  0 Multiplicity = 1

                         Standard orientation:
 ---------------------------------------------------------------------
 Center     Atomic      Atomic             Coordinates (Angstroms)
 Number     Number       Type             X           Y           Z
 ---------------------------------------------------------------------
      1          8           0        4.873277   -0.345700   -0.613605
      2          6           0        3.670938   -0.107553    0.131148
      3          6           0        3.191970    1.259098   -0.331957
      4          8           0        4.187269    2.287408   -0.223498
      5          1           0        5.016294    1.872706   -0.599204
      6          6           0        1.835956    1.603201    0.262418
      7          8           0        1.253756    2.856419   -0.127159
      8          1           0        0.378251    2.858620    0.355235
      9          6           0        3.054098   -2.520262    0.290564
     10          8           0        4.168083   -3.188096   -0.319567
     11          1           0        4.077265   -4.176095   -0.191733
     12          6           0        2.581882   -1.136963   -0.125326
     13          8           0        1.456782   -0.794423    0.696404
     14          6           0        0.930884    0.394295    0.090784
     15          8           0       -0.331399    0.488619    0.768169
     16          6           0       -1.484073    0.207672   -0.039251
     17          6           0       -1.960834   -1.180357    0.357909
     18          8           0       -0.933232   -2.129048    0.036991
     19          1           0       -0.072230   -1.747358    0.374360
     20          6           0       -3.244365   -1.642454   -0.312106
     21          8           0       -3.736631   -2.879828    0.223202
     22          1           0       -4.651496   -3.035492   -0.148884
     23          6           0       -2.387477    2.659092   -0.167522
     24          8           0       -1.281586    3.396554    0.372522
     25          1           0       -1.534560    4.361596    0.317505
     26          6           0       -2.600497    1.204821    0.222514
     27          8           0       -3.782603    0.781204   -0.472442
     28          6           0       -4.224864   -0.513500   -0.038105
     29          8           0       -5.505699   -0.525750   -0.686417
     30          1           0       -6.197682   -0.609640   -0.026325
     31          1           0        5.587473   -0.559049   -0.008622
     32          1           0        2.213167   -3.172607    0.180196
     33          1           0        3.271638   -2.463580    1.336683
     34          1           0        2.302504   -1.133880   -1.158204
     35          1           0        3.895945   -0.074467    1.176699
     36          1           0        3.016967    1.153295   -1.382233
     37          1           0        2.001402    1.688876    1.316072
     38          1           0        0.763827    0.219316   -0.951508
     39          1           0       -3.278724    3.189809    0.095002
     40          1           0       -2.296628    2.689724   -1.233218
     41          1           0       -2.812510    1.180715    1.271023
     42          1           0       -1.217153    0.220195   -1.075348
     43          1           0       -2.112142   -1.192535    1.417087
     44          1           0       -3.088579   -1.739332   -1.366262
     45          1           0       -4.388863   -0.472229    1.018447
 ---------------------------------------------------------------------

 SCF Done:  E(RB3LYP) =  -1297.98284934     A.U. after   13 cycles

 The electronic state is 1-A.
 Alpha  occ. eigenvalues --  -19.19782 -19.18476 -19.18288 -19.17742 -19.17663
 Alpha  occ. eigenvalues --  -19.17118 -19.16844 -19.16465 -19.14967 -19.14097
 Alpha  occ. eigenvalues --  -19.13962 -10.30876 -10.30417 -10.26066 -10.25910
 Alpha  occ. eigenvalues --  -10.25799 -10.25298 -10.25234 -10.25168 -10.24541
 Alpha  occ. eigenvalues --  -10.24334 -10.24324 -10.24045  -1.11279  -1.09294
 Alpha  occ. eigenvalues --   -1.05746  -1.05289  -1.04630  -1.03624  -1.02815
 Alpha  occ. eigenvalues --   -1.02514  -1.01785  -1.00946  -1.00320  -0.82075
 Alpha  occ. eigenvalues --   -0.80866  -0.79729  -0.78537  -0.72103  -0.70022
 Alpha  occ. eigenvalues --   -0.67071  -0.65285  -0.63445  -0.62488  -0.61765
 Alpha  occ. eigenvalues --   -0.60767  -0.56570  -0.55941  -0.54984  -0.54485
 Alpha  occ. eigenvalues --   -0.54249  -0.53319  -0.53203  -0.52268  -0.51503
 Alpha  occ. eigenvalues --   -0.50717  -0.49826  -0.49359  -0.49021  -0.46680
 Alpha  occ. eigenvalues --   -0.46269  -0.45551  -0.44116  -0.43832  -0.43508
 Alpha  occ. eigenvalues --   -0.42576  -0.41974  -0.41408  -0.40373  -0.40127
 Alpha  occ. eigenvalues --   -0.39224  -0.38131  -0.37289  -0.36488  -0.36261
 Alpha  occ. eigenvalues --   -0.35654  -0.35104  -0.34945  -0.34659  -0.34115
 Alpha  occ. eigenvalues --   -0.32650  -0.31530  -0.30996  -0.30657  -0.30226
 Alpha  occ. eigenvalues --   -0.29384  -0.28905  -0.28886  -0.27150  -0.27110
 Alpha  occ. eigenvalues --   -0.26627
 Alpha virt. eigenvalues --   -0.02013  -0.01975  -0.01917  -0.00177   0.00229
 Alpha virt. eigenvalues --    0.00850   0.02125   0.02184   0.03239   0.03302
 Alpha virt. eigenvalues --    0.03840   0.04386   0.05053   0.05154   0.05426

 Mulliken atomic charges:
              1
     1  O   -0.553447
     2  C   -0.039450
     3  C    0.337277
     4  O   -0.566250
     5  H    0.348871
     6  C   -0.324745
     7  O   -0.524055
     8  H    0.392895
     9  C   -0.324250
    10  O   -0.534825
    11  H    0.343271
    12  C    0.240055
    13  O   -0.257747
    14  C    0.361988
    15  O   -0.265306
    16  C    0.328891
    17  C    0.140631
    18  O   -0.583068
    19  H    0.395862
    20  C    0.059991
    21  O   -0.531134
    22  H    0.335714
    23  C   -0.315115
    24  O   -0.541883
    25  H    0.356237
    26  C   -0.111610
    27  O   -0.217230
    28  C    0.115604
    29  O   -0.532577
    30  H    0.330454
    31  H    0.343116
    32  H    0.145543
    33  H    0.141560
    34  H    0.121006
    35  H    0.125237
    36  H    0.109180
    37  H    0.119146
    38  H    0.118585
    39  H    0.146754
    40  H    0.157176
    41  H    0.113662
    42  H    0.114853
    43  H    0.128108
    44  H    0.134096
    45  H    0.116927
 Sum of Mulliken atomic charges =   0.00000

 Dipole moment (field-independent basis, Debye):
    X=             -2.3388    Y=             -0.6401    Z=              2.0033  Tot=              3.1453
 Quadrupole moment (field-independent basis, Debye-Ang):
   XX=           -118.0269   YY=           -137.2059   ZZ=           -140.7763
   XY=            -17.9999   XZ=             -1.2962   YZ=              0.5987

  Exact polarizability: 231.450   0.853 198.415  -0.338  -0.426 142.897
 Approx polarizability: 272.877   0.102 258.672  -0.461  -0.589 240.291

 ******    7 imaginary frequencies (negative Signs) ******

                     1                      2                      3
                     A                      A                      A
 Frequencies --  -303.2186              -276.8932              -253.4101
 Red. masses --     1.7142                 1.7615                 1.2059
 Frc consts  --     0.0929                 0.0796                 0.0456
 IR Inten    --     6.8085                 1.5244                90.5236
 Raman Activ --     0.0675                 0.0525                 0.6205

                     4                      5                      6
                     A                      A                      A
 Frequencies --  -191.4637               -60.3212               -48.0437
 Red. masses --     1.1981                 6.8844                 6.1498
 Frc consts  --     0.0259                 0.0148                 0.0084
 IR Inten    --    95.0046                 0.7255                 1.2260
 Raman Activ --     0.5657                 0.0579                 0.0331

                     7                      8                      9
                     A                      A                      A
 Frequencies --    -7.6670                62.2536                80.1336
 Red. masses --     6.1805                 6.0750                 6.7231
 Frc consts  --     0.0002                 0.0139                 0.0254
 IR Inten    --     1.2705                 2.2951                 0.1062
 Raman Activ --     0.0395                 0.0907                 0.1342

                    10                     11                     12
                     A                      A                      A
 Frequencies --    97.6534               112.3696               120.8143
 Red. masses --     6.1367                 5.5982                 6.1183
 Frc consts  --     0.0345                 0.0416                 0.0526
 IR Inten    --     5.7759                 3.3157                 5.5221
 Raman Activ --     0.1280                 0.0918                 0.0410

                    13                     14                     15
                     A                      A                      A
 Frequencies --   160.2269               177.7482               191.0825
 Red. masses --     6.5769                 7.1004                 5.1057
 Frc consts  --     0.0995                 0.1322                 0.1098
 IR Inten    --     3.2446                 0.9766                 2.2476
 Raman Activ --     0.6581                 0.4588                 0.2967

                    16                     17                     18
                     A                      A                      A
 Frequencies --   212.9957               232.5639               271.4048
 Red. masses --     6.8228                 6.2061                 4.9511
 Frc consts  --     0.1824                 0.1978                 0.2149
 IR Inten    --     0.3103                 1.3253                 4.1650
 Raman Activ --     2.0840                 0.5417                 0.4169

                    19                     20                     21
                     A                      A                      A
 Frequencies --   284.6950               294.2811               303.9532
 Red. masses --     4.8820                 4.5316                 6.2846
 Frc consts  --     0.2331                 0.2312                 0.3421
 IR Inten    --     6.0160                 1.9486                 7.0204
 Raman Activ --     0.4496                 0.9236                 1.6685

                    22                     23                     24
                     A                      A                      A
 Frequencies --   313.5395               317.3683               327.8941
 Red. masses --     6.3326                 5.2429                 4.5754
 Frc consts  --     0.3668                 0.3111                 0.2898
 IR Inten    --     0.1649                 2.9413                 5.9445
 Raman Activ --     1.5163                 2.4126                 0.5021

                    25                     26                     27
                     A                      A                      A
 Frequencies --   343.5607               363.7451               373.4406
 Red. masses --     6.8182                 4.7756                 7.9878
 Frc consts  --     0.4742                 0.3723                 0.6563
 IR Inten    --     6.9522                 3.2288                 3.6900
 Raman Activ --     3.6318                 0.4562                 3.9115

                    28                     29                     30
                     A                      A                      A
 Frequencies --   417.7462               426.9140               435.7335
 Red. masses --     6.0838                 5.1448                 5.2429
 Frc consts  --     0.6255                 0.5525                 0.5865
 IR Inten    --     7.8901                 3.3633                 3.2269
 Raman Activ --     2.9229                 1.1712                 2.3109

                    31                     32                     33
                     A                      A                      A
 Frequencies --   447.8289               469.7353               495.1223
 Red. masses --     4.6464                 4.5032                 4.6428
 Frc consts  --     0.5490                 0.5854                 0.6706
 IR Inten    --    30.6444                 6.0217                 5.3516
 Raman Activ --     4.6031                 3.4822                 2.2005

                    34                     35                     36
                     A                      A                      A
 Frequencies --   511.5463               523.7100               559.4017
 Red. masses --     3.9454                 3.0766                 3.9690
 Frc consts  --     0.6083                 0.4972                 0.7318
 IR Inten    --    15.3789                 8.7673                11.8023
 Raman Activ --     2.1956                 2.7363                 1.7219

                    37                     38                     39
                     A                      A                      A
 Frequencies --   575.0604               588.7749               611.4871
 Red. masses --     3.6482                 3.9183                 3.8072
 Frc consts  --     0.7108                 0.8003                 0.8387
 IR Inten    --    31.7468                33.3123                 4.5316
 Raman Activ --     0.9051                 0.5023                 0.4871

                    40                     41                     42
                     A                      A                      A
 Frequencies --   642.7614               680.5186               685.0675
 Red. masses --     6.5820                 1.0810                 1.0863
 Frc consts  --     1.6022                 0.2950                 0.3004
 IR Inten    --    25.4834                90.3081               134.8376
 Raman Activ --     1.5933                 2.1146                 1.3185

                    43                     44                     45
                     A                      A                      A
 Frequencies --   709.1816               728.7786               777.5551
 Red. masses --     5.6659                 1.0737                 1.0716
 Frc consts  --     1.6789                 0.3360                 0.3817
 IR Inten    --     8.9640                99.2424                91.6509
 Raman Activ --     1.2901                 1.7929                 1.5357

                    46                     47                     48
                     A                      A                      A
 Frequencies --   834.9148               848.4866               861.2490
 Red. masses --     1.1530                 1.7263                 1.5921
 Frc consts  --     0.4735                 0.7322                 0.6958
 IR Inten    --    82.2834                 5.8614                12.3945
 Raman Activ --     1.7100                 0.5422                 0.6499

                    49                     50                     51
                     A                      A                      A
 Frequencies --   881.5211               935.4806               956.1597
 Red. masses --     1.0828                 6.2757                 6.5340
 Frc consts  --     0.4957                 3.2358                 3.5196
 IR Inten    --    68.0931               172.3054                76.1106
 Raman Activ --     0.6566                 2.8843                 0.5820

                    52                     53                     54
                     A                      A                      A
 Frequencies --   970.8501               985.8201               993.2786
 Red. masses --     4.9458                 6.5676                 4.5036
 Frc consts  --     2.7466                 3.7606                 2.6179
 IR Inten    --    23.1184               191.8399                25.3324
 Raman Activ --     3.0558                 0.6793                 0.6254

                    55                     56                     57
                     A                      A                      A
 Frequencies --   997.9172              1016.6000              1027.7101
 Red. masses --     6.1211                 6.3930                 6.0841
 Frc consts  --     3.5915                 3.8928                 3.7860
 IR Inten    --   379.8620                52.3058               127.0512
 Raman Activ --     2.2908                 3.8846                 1.4867

                    58                     59                     60
                     A                      A                      A
 Frequencies --  1038.5806              1057.7062              1067.4412
 Red. masses --     6.9083                 6.4576                 6.5262
 Frc consts  --     4.3903                 4.2565                 4.3813
 IR Inten    --   173.0365                96.2625               118.1385
 Raman Activ --     2.4689                 2.2927                 0.1456

                    61                     62                     63
                     A                      A                      A
 Frequencies --  1070.7641              1075.7615              1082.0612
 Red. masses --     5.2671                 3.2140                 2.9850
 Frc consts  --     3.5580                 2.1914                 2.0592
 IR Inten    --    11.3518                 6.4363                53.6174
 Raman Activ --     0.8841                 5.2102                22.2963

                    64                     65                     66
                     A                      A                      A
 Frequencies --  1098.7739              1107.6949              1111.0967
 Red. masses --     2.4509                 3.4109                 2.5662
 Frc consts  --     1.7434                 2.4658                 1.8665
 IR Inten    --   108.1003                20.2605                30.5958
 Raman Activ --     8.3631                20.9207                 2.6518

                    67                     68                     69
                     A                      A                      A
 Frequencies --  1113.0802              1120.0838              1142.3238
 Red. masses --     2.7992                 2.6336                 2.5675
 Frc consts  --     2.0433                 1.9467                 1.9739
 IR Inten    --    10.2185                42.2723                53.7299
 Raman Activ --     4.8920                 2.1641                 1.9886

                    70                     71                     72
                     A                      A                      A
 Frequencies --  1152.4269              1158.9880              1166.6256
 Red. masses --     2.9064                 1.7237                 2.3544
 Frc consts  --     2.2742                 1.3642                 1.8880
 IR Inten    --    13.1167                 2.0109                27.1510
 Raman Activ --     5.4251                 1.2325                 9.3899

                    73                     74                     75
                     A                      A                      A
 Frequencies --  1167.8269              1175.6071              1189.3865
 Red. masses --     2.0395                 1.8906                 1.9905
 Frc consts  --     1.6388                 1.5394                 1.6591
 IR Inten    --    14.3424                 6.5862                19.5672
 Raman Activ --     1.8225                 1.0061                 1.8431

                    76                     77                     78
                     A                      A                      A
 Frequencies --  1210.1789              1213.1349              1243.1947
 Red. masses --     1.2882                 1.4690                 1.1755
 Frc consts  --     1.1116                 1.2737                 1.0704
 IR Inten    --    29.1316                 0.7436                11.1588
 Raman Activ --     1.3658                 2.2442                 1.2907

                    79                     80                     81
                     A                      A                      A
 Frequencies --  1250.2760              1259.5199              1273.2892
 Red. masses --     1.3452                 1.3627                 1.1990
 Frc consts  --     1.2389                 1.2737                 1.1453
 IR Inten    --     0.3021                 7.2889                23.2716
 Raman Activ --     0.7627                 1.0960                 0.3023

                    82                     83                     84
                     A                      A                      A
 Frequencies --  1285.0751              1290.8106              1295.0184
 Red. masses --     1.3391                 1.2661                 1.2724
 Frc consts  --     1.3029                 1.2429                 1.2573
 IR Inten    --    27.1884                26.7997                20.2167
 Raman Activ --     2.1458                 0.8050                 2.5637

                    85                     86                     87
                     A                      A                      A
 Frequencies --  1301.9677              1306.5404              1310.4311
 Red. masses --     1.2565                 1.1983                 1.2346
 Frc consts  --     1.2549                 1.2052                 1.2491
 IR Inten    --     4.6863                 5.9203                21.0744
 Raman Activ --     1.0044                 9.4203                 6.6828

                    88                     89                     90
                     A                      A                      A
 Frequencies --  1324.9346              1326.7288              1329.7951
 Red. masses --     1.3272                 1.1546                 1.2966
 Frc consts  --     1.3727                 1.1974                 1.3509
 IR Inten    --     8.3401                 1.7152                20.8687
 Raman Activ --     2.1833                 6.7658                 5.5705

                    91                     92                     93
                     A                      A                      A
 Frequencies --  1347.1086              1359.3259              1362.5358
 Red. masses --     1.1784                 1.1753                 1.2966
 Frc consts  --     1.2600                 1.2795                 1.4183
 IR Inten    --    48.7145                37.4242                18.4606
 Raman Activ --    12.8962                 0.5673                 3.7497

                    94                     95                     96
                     A                      A                      A
 Frequencies --  1364.1045              1370.3180              1381.4891
 Red. masses --     1.2762                 1.2721                 1.4302
 Frc consts  --     1.3991                 1.4074                 1.6082
 IR Inten    --     7.1074                29.4684                 2.1663
 Raman Activ --     8.6535                 2.9307                 3.4244

                    97                     98                     99
                     A                      A                      A
 Frequencies --  1391.0968              1398.1645              1404.7440
 Red. masses --     1.5437                 1.3058                 1.3753
 Frc consts  --     1.7600                 1.5040                 1.5990
 IR Inten    --     9.9640                 1.2109                 2.5896
 Raman Activ --     4.2524                 4.5854                 7.5156

                   100                    101                    102
                     A                      A                      A
 Frequencies --  1435.2275              1453.0059              1463.2834
 Red. masses --     1.4139                 1.3459                 1.2452
 Frc consts  --     1.7160                 1.6741                 1.5709
 IR Inten    --    41.9644                51.2137                 9.8058
 Raman Activ --     1.2205                 0.8777                 4.6394

                   103                    104                    105
                     A                      A                      A
 Frequencies --  1471.7631              1475.4454              1481.7482
 Red. masses --     1.0943                 1.1755                 1.3505
 Frc consts  --     1.3966                 1.5078                 1.7470
 IR Inten    --     5.3911                 7.0038                17.2141
 Raman Activ --     5.2976                 1.4566                 0.4420

                   106                    107                    108
                     A                      A                      A
 Frequencies --  1493.9711              1515.4302              3253.6298
 Red. masses --     1.3461                 1.2645                 1.0711
 Frc consts  --     1.7702                 1.7109                 6.6804
 IR Inten    --    95.6497                42.7618                21.8196
 Raman Activ --     2.0538                 1.7965                15.5275

                   109                    110                    111
                     A                      A                      A
 Frequencies --  3254.7783              3260.3559              3264.0595
 Red. masses --     1.0659                 1.0608                 1.0815
 Frc consts  --     6.6528                 6.6440                 6.7885
 IR Inten    --    20.9503                42.9671                18.3943
 Raman Activ --   180.3960               110.8900                 4.0208

                   112                    113                    114
                     A                      A                      A
 Frequencies --  3266.0777              3268.7948              3274.4126
 Red. masses --     1.0810                 1.0826                 1.0771
 Frc consts  --     6.7941                 6.8151                 6.8038
 IR Inten    --    48.9042                39.3174               181.3755
 Raman Activ --    12.8428                20.9141               179.9154

                   115                    116                    117
                     A                      A                      A
 Frequencies --  3276.4446              3282.2208              3285.5240
 Red. masses --     1.0856                 1.0821                 1.0794
 Frc consts  --     6.8661                 6.8686                 6.8652
 IR Inten    --    39.2597                18.2780               110.5787
 Raman Activ --    39.4090               179.8245               126.8650

                   118                    119                    120
                     A                      A                      A
 Frequencies --  3292.5218              3295.9439              3303.2748
 Red. masses --     1.0857                 1.0904                 1.0877
 Frc consts  --     6.9344                 6.9788                 6.9925
 IR Inten    --    14.5346                39.9895                50.5792
 Raman Activ --    23.4365                 4.5057                27.5143

                   121                    122                    123
                     A                      A                      A
 Frequencies --  3305.9974              3308.3319              3315.3074
 Red. masses --     1.0709                 1.0956                 1.1048
 Frc consts  --     6.8960                 7.0650                 7.1544
 IR Inten    --   623.4881               219.6354                93.8694
 Raman Activ --   117.8913                26.1085                29.2168

                   124                    125                    126
                     A                      A                      A
 Frequencies --  3362.6891              3364.2276              3372.1059
 Red. masses --     1.0645                 1.0681                 1.0662
 Frc consts  --     7.0923                 7.1227                 7.1430
 IR Inten    --    37.9737                60.1754                40.7533
 Raman Activ --    75.9280               176.1491               135.7548

                   127                    128                    129
                     A                      A                      A
 Frequencies --  3384.3183              3889.4877              3890.1366
 Red. masses --     1.0672                 1.0676                 1.0675
 Frc consts  --     7.2019                 9.5156                 9.5180
 IR Inten    --    67.3201                82.8941                66.9937
 Raman Activ --   148.9070                93.9951               103.0426

 - Thermochemistry -
 -------------------
 Temperature   298.150 Kelvin.  Pressure   1.00000 Atm.
 Atom     1 has atomic number  8 and mass  15.99491

 Molecular mass:   342.11621 amu.
 Principal axes and moments of inertia in atomic units:
                           1         2         3
     Eigenvalues --  4530.41244********************
           X            0.99996  -0.00919  -0.00058
           Y            0.00919   0.99996  -0.00162
           Z            0.00059   0.00161   1.00000
 This molecule is an asymmetric top.
 Rotational symmetry number  1.
 Warning -- assumption of classical behavior for rotation
           may cause significant error
 Rotational temperatures (Kelvin)      0.01912     0.00718     0.00537
 Rotational constants (GHZ):           0.39836     0.14959     0.11196
    7 imaginary frequencies ignored.
 Zero-point vibrational energy     977918.2 (Joules/Mol)
                                  233.72807 (Kcal/Mol)
 Warning -- explicit consideration of  32 degrees of freedom as
           vibrations may cause significant error
 Vibrational temperatures:     89.57   115.29   140.50   161.67   173.82
          (Kelvin)            230.53   255.74   274.92   306.45   334.61
                              390.49   409.61   423.40   437.32   451.11
                              456.62   471.77   494.31   523.35   537.30
                              601.04   614.23   626.92   644.33   675.84
                              712.37   736.00   753.50   804.85   827.38
                              847.11   879.79   924.79   979.11   985.66
                             1020.35  1048.55  1118.73  1201.25  1220.78
                             1239.14  1268.31  1345.95  1375.70  1396.83
                             1418.37  1429.10  1435.78  1462.66  1478.64
                             1494.28  1521.80  1535.81  1540.59  1547.78
                             1556.84  1580.89  1593.72  1598.62  1601.47
                             1611.55  1643.55  1658.08  1667.52  1678.51
                             1680.24  1691.43  1711.26  1741.18  1745.43
                             1788.68  1798.87  1812.17  1831.98  1848.93
                             1857.19  1863.24  1873.24  1879.82  1885.42
                             1906.28  1908.86  1913.28  1938.19  1955.76
                             1960.38  1962.64  1971.58  1987.65  2001.48
                             2011.64  2021.11  2064.97  2090.55  2105.34
                             2117.54  2122.83  2131.90  2149.49  2180.36
                             4681.24  4682.89  4690.92  4696.25  4699.15
                             4703.06  4711.14  4714.07  4722.38  4727.13
                             4737.20  4742.12  4752.67  4756.59  4759.95
                             4769.98  4838.15  4840.37  4851.70  4869.27
                             5596.10  5597.03

 Zero-point correction=                           0.372469 (Hartree/Particle)
 Thermal correction to Energy=                    0.390523
 Thermal correction to Enthalpy=                  0.391467
 Thermal correction to Gibbs Free Energy=         0.327845
 Sum of electronic and zero-point Energies=          -1297.610380
 Sum of electronic and thermal Energies=             -1297.592326
 Sum of electronic and thermal Enthalpies=           -1297.591382
 Sum of electronic and thermal Free Energies=        -1297.655004

                     E (Thermal)             CV                S
                      KCal/Mol        Cal/Mol-Kelvin    Cal/Mol-Kelvin
 Total                  245.057             75.414            133.903
 Electronic               0.000              0.000              0.000
 Translational            0.889              2.981             43.384
 Rotational               0.889              2.981             35.131
 Vibrational            243.279             69.452             55.388
 Vibration     1          0.597              1.972              4.384
 Vibration     2          0.600              1.963              3.888
 Vibration     3          0.603              1.951              3.501
 Vibration     4          0.607              1.939              3.228
 Vibration     5          0.609              1.932              3.087
 Vibration     6          0.622              1.891              2.547
 Vibration     7          0.628              1.870              2.352
 Vibration     8          0.634              1.852              2.217
 Vibration     9          0.644              1.821              2.018
 Vibration    10          0.653              1.791              1.859
 Vibration    11          0.675              1.726              1.587
 Vibration    12          0.683              1.702              1.505
 Vibration    13          0.689              1.684              1.449
 Vibration    14          0.695              1.666              1.395
 Vibration    15          0.701              1.648              1.344
 Vibration    16          0.704              1.640              1.324
 Vibration    17          0.711              1.620              1.270
 Vibration    18          0.722              1.588              1.196
 Vibration    19          0.737              1.547              1.106
 Vibration    20          0.745              1.527              1.066
 Vibration    21          0.781              1.432              0.900
 Vibration    22          0.789              1.412              0.869
 Vibration    23          0.796              1.392              0.840
 Vibration    24          0.807              1.366              0.802
 Vibration    25          0.827              1.317              0.738
 Vibration    26          0.851              1.261              0.670
 Vibration    27          0.867              1.224              0.630
 Vibration    28          0.879              1.198              0.601
 Vibration    29          0.915              1.119              0.525
 Vibration    30          0.931              1.085              0.495
 Vibration    31          0.946              1.056              0.469
 Vibration    32          0.971              1.008              0.430

 Normal termination of Gaussian 09 at Mon Mar 21 21:25:27 2016.
