 Gaussian 09, Revision B.01,
 Gaussian 09:  EM64L-G09RevB.01 12-Aug-2010

 -------------------------------------------------
 # freq=raman b3lyp/6-31+g(2d,p) geom=connectivity
 -------------------------------------------------

 -----------------
 473 5000/5000.com
 -----------------
 Symbolic Z-matrix:
 Charge =  0 Multiplicity = 1

                         Standard orientation:
 ---------------------------------------------------------------------
 Center     Atomic      Atomic             Coordinates (Angstroms)
 Number     Number       Type             X           Y           Z
 ---------------------------------------------------------------------
      1          8           0        5.047664   -0.458339   -0.362468
      2          6           0        3.771995   -0.052627    0.154071
      3          6           0        3.217017    1.274093   -0.340369
      4          8           0        4.141441    2.312423    0.013355
      5          1           0        5.059841    1.920188    0.074615
      6          6           0        1.786946    1.600106    0.057101
      7          8           0        1.219316    2.769385   -0.551809
      8          1           0        0.440237    3.101427   -0.020026
      9          6           0        3.152254   -2.491626    0.460825
     10          8           0        4.196648   -3.202001   -0.219649
     11          1           0        3.999588   -4.174968   -0.340083
     12          6           0        2.776708   -1.157538   -0.163398
     13          8           0        1.450872   -0.835254    0.280139
     14          6           0        0.953671    0.379658   -0.300637
     15          8           0       -0.280476    0.510289    0.419438
     16          6           0       -1.572381    0.174590   -0.108660
     17          6           0       -2.051507   -1.176810    0.396132
     18          8           0       -1.005399   -2.133824    0.173468
     19          1           0       -0.157269   -1.769204    0.557706
     20          6           0       -3.393452   -1.534994   -0.223483
     21          8           0       -3.997030   -2.801952    0.074004
     22          1           0       -4.875787   -2.850502   -0.400019
     23          6           0       -2.280811    2.650777   -0.061477
     24          8           0       -1.185739    3.228787    0.663866
     25          1           0       -1.447906    4.191810    0.733734
     26          6           0       -2.582674    1.216894    0.340365
     27          8           0       -3.824794    0.906035   -0.309073
     28          6           0       -4.313448   -0.374083    0.117462
     29          8           0       -5.500322   -0.628358   -0.648169
     30          1           0       -6.217591   -0.867552   -0.056636
     31          1           0       -4.536740   -0.363994    1.163856
     32          1           0       -3.251684   -1.513775   -1.283838
     33          1           0       -2.195998   -1.096196    1.453262
     34          1           0       -1.527202    0.159795   -1.177603
     35          1           0       -2.708895    1.160599    1.401402
     36          1           0       -3.154651    3.244677    0.107592
     37          1           0       -2.048574    2.671785   -1.105759
     38          1           0        5.611620   -0.739080    0.361921
     39          1           0        2.280472   -3.111710    0.480640
     40          1           0        3.465606   -2.315784    1.468689
     41          1           0        2.750314   -1.283648   -1.225613
     42          1           0        3.860041    0.011289    1.218525
     43          1           0        3.221167    1.219080   -1.408946
     44          1           0        1.756096    1.728648    1.118904
     45          1           0        0.793941    0.288924   -1.354749
 ---------------------------------------------------------------------

 SCF Done:  E(RB3LYP) =  -1297.99494671     A.U. after   13 cycles

 The electronic state is 1-A.
 Alpha  occ. eigenvalues --  -19.19107 -19.18136 -19.17969 -19.17952 -19.17217
 Alpha  occ. eigenvalues --  -19.16861 -19.16237 -19.15996 -19.14798 -19.13885
 Alpha  occ. eigenvalues --  -19.13584 -10.30533 -10.30177 -10.25766 -10.25296
 Alpha  occ. eigenvalues --  -10.25291 -10.25281 -10.24702 -10.24657 -10.24505
 Alpha  occ. eigenvalues --  -10.24280 -10.24235 -10.24124  -1.09643  -1.09107
 Alpha  occ. eigenvalues --   -1.05919  -1.05289  -1.03985  -1.03261  -1.02391
 Alpha  occ. eigenvalues --   -1.02085  -1.01825  -1.00476  -0.99967  -0.82143
 Alpha  occ. eigenvalues --   -0.80233  -0.79612  -0.78180  -0.71855  -0.69972
 Alpha  occ. eigenvalues --   -0.67203  -0.64226  -0.62930  -0.62512  -0.61455
 Alpha  occ. eigenvalues --   -0.60213  -0.56342  -0.55748  -0.55039  -0.54779
 Alpha  occ. eigenvalues --   -0.54328  -0.53394  -0.52721  -0.51680  -0.51197
 Alpha  occ. eigenvalues --   -0.50624  -0.49860  -0.49601  -0.48400  -0.46398
 Alpha  occ. eigenvalues --   -0.45990  -0.45115  -0.44382  -0.43781  -0.43054
 Alpha  occ. eigenvalues --   -0.42673  -0.41959  -0.41377  -0.40614  -0.39622
 Alpha  occ. eigenvalues --   -0.38649  -0.38293  -0.37811  -0.35824  -0.35253
 Alpha  occ. eigenvalues --   -0.34811  -0.34454  -0.33886  -0.33768  -0.33089
 Alpha  occ. eigenvalues --   -0.32620  -0.31638  -0.31005  -0.30550  -0.29866
 Alpha  occ. eigenvalues --   -0.29166  -0.28858  -0.27997  -0.27880  -0.26349
 Alpha  occ. eigenvalues --   -0.26231
 Alpha virt. eigenvalues --   -0.02169  -0.01838  -0.01734  -0.00127   0.00281
 Alpha virt. eigenvalues --    0.01056   0.01863   0.02290   0.03096   0.03370
 Alpha virt. eigenvalues --    0.03815   0.04103   0.04848   0.05276   0.05704

 Mulliken atomic charges:
              1
     1  O   -0.513527
     2  C   -0.180759
     3  C    0.255709
     4  O   -0.564233
     5  H    0.337415
     6  C    0.041771
     7  O   -0.570701
     8  H    0.407850
     9  C   -0.291728
    10  O   -0.536967
    11  H    0.343421
    12  C    0.206273
    13  O   -0.213463
    14  C    0.188990
    15  O   -0.276887
    16  C    0.176887
    17  C    0.229173
    18  O   -0.559915
    19  H    0.375269
    20  C   -0.052243
    21  O   -0.551594
    22  H    0.341993
    23  C   -0.275199
    24  O   -0.551231
    25  H    0.356945
    26  C   -0.032423
    27  O   -0.254500
    28  C    0.224788
    29  O   -0.565338
    30  H    0.339615
    31  H    0.129671
    32  H    0.125529
    33  H    0.108386
    34  H    0.116433
    35  H    0.124385
    36  H    0.146847
    37  H    0.162376
    38  H    0.345763
    39  H    0.144247
    40  H    0.136485
    41  H    0.118507
    42  H    0.120630
    43  H    0.118767
    44  H    0.130448
    45  H    0.136132
 Sum of Mulliken atomic charges =   0.00000

 Dipole moment (field-independent basis, Debye):
    X=             -2.5582    Y=              0.2575    Z=              2.8026  Tot=              3.8033
 Quadrupole moment (field-independent basis, Debye-Ang):
   XX=           -120.3583   YY=           -136.5473   ZZ=           -138.0708
   XY=            -16.7981   XZ=              2.2824   YZ=              4.4354

  Exact polarizability: 233.768   0.694 197.354   1.357   0.732 144.889
 Approx polarizability: 274.494  -0.610 257.336   2.369   1.884 240.779

 ******    6 imaginary frequencies (negative Signs) ******

                     1                      2                      3
                     A                      A                      A
 Frequencies --  -256.1886              -212.9987              -209.4969
 Red. masses --     1.4964                 1.2460                 1.7530
 Frc consts  --     0.0579                 0.0333                 0.0453
 IR Inten    --    55.9550               120.2338                 3.8487
 Raman Activ --     0.4860                 1.0094                 0.0572

                     4                      5                      6
                     A                      A                      A
 Frequencies --  -201.3843               -72.8953               -61.1205
 Red. masses --     1.3669                 6.3590                 6.1364
 Frc consts  --     0.0327                 0.0199                 0.0135
 IR Inten    --    58.4889                 1.8853                 0.6026
 Raman Activ --     0.6842                 0.0686                 0.0245

                     7                      8                      9
                     A                      A                      A
 Frequencies --    29.5352                40.4584                77.8745
 Red. masses --     6.2079                 6.8165                 6.4478
 Frc consts  --     0.0032                 0.0066                 0.0230
 IR Inten    --     3.4911                 0.7306                 2.6975
 Raman Activ --     0.0700                 0.0455                 0.1998

                    10                     11                     12
                     A                      A                      A
 Frequencies --    97.7230               100.8948               129.2695
 Red. masses --     6.9612                 6.4268                 5.4259
 Frc consts  --     0.0392                 0.0385                 0.0534
 IR Inten    --     1.1870                 1.0310                 1.8190
 Raman Activ --     0.0552                 0.3133                 0.0392

                    13                     14                     15
                     A                      A                      A
 Frequencies --   165.8812               166.4714               189.4933
 Red. masses --     5.9772                 6.3657                 6.0921
 Frc consts  --     0.0969                 0.1039                 0.1289
 IR Inten    --     6.4980                 2.6284                 0.4743
 Raman Activ --     0.2967                 0.9337                 0.2814

                    16                     17                     18
                     A                      A                      A
 Frequencies --   205.6753               231.9303               258.3128
 Red. masses --     6.8746                 5.8743                 4.7541
 Frc consts  --     0.1713                 0.1862                 0.1869
 IR Inten    --     0.5763                 1.3001                21.2673
 Raman Activ --     1.9178                 0.4918                 0.1469

                    19                     20                     21
                     A                      A                      A
 Frequencies --   278.6504               289.5907               307.1211
 Red. masses --     4.6149                 5.5429                 5.9375
 Frc consts  --     0.2111                 0.2739                 0.3300
 IR Inten    --     1.7018                 1.1340                 3.4488
 Raman Activ --     0.0593                 0.1222                 2.1338

                    22                     23                     24
                     A                      A                      A
 Frequencies --   310.9915               320.3034               331.6876
 Red. masses --     4.6392                 5.5389                 5.4310
 Frc consts  --     0.2644                 0.3348                 0.3520
 IR Inten    --     2.6095                 1.7447                 0.8067
 Raman Activ --     0.4886                 1.6493                 2.7419

                    25                     26                     27
                     A                      A                      A
 Frequencies --   340.2725               356.5043               371.8968
 Red. masses --     6.0955                 5.0802                 6.8883
 Frc consts  --     0.4158                 0.3804                 0.5613
 IR Inten    --    19.1334                 6.2980                 3.8453
 Raman Activ --     4.5498                 0.4730                 1.6155

                    28                     29                     30
                     A                      A                      A
 Frequencies --   397.8348               408.8829               427.9470
 Red. masses --     4.2666                 6.5529                 4.4513
 Frc consts  --     0.3979                 0.6455                 0.4803
 IR Inten    --    11.5804                 3.2641                 0.7765
 Raman Activ --     1.9692                 4.4237                 1.1342

                    31                     32                     33
                     A                      A                      A
 Frequencies --   440.3932               470.1062               497.4494
 Red. masses --     6.0451                 3.6837                 4.7832
 Frc consts  --     0.6908                 0.4796                 0.6974
 IR Inten    --     0.4073                 4.1225                10.5505
 Raman Activ --     5.5669                 3.2931                 0.2159

                    34                     35                     36
                     A                      A                      A
 Frequencies --   514.8699               519.6595               554.0860
 Red. masses --     3.7054                 3.3571                 3.7213
 Frc consts  --     0.5787                 0.5341                 0.6731
 IR Inten    --    20.0079                 3.1733                22.5541
 Raman Activ --     0.9279                 5.4920                 1.4344

                    37                     38                     39
                     A                      A                      A
 Frequencies --   578.7207               586.7885               606.3140
 Red. masses --     3.5226                 4.3947                 4.1862
 Frc consts  --     0.6951                 0.8915                 0.9067
 IR Inten    --    27.2742                12.7678                 7.0777
 Raman Activ --     0.3326                 0.7705                 0.2848

                    40                     41                     42
                     A                      A                      A
 Frequencies --   619.2044               656.0686               699.2506
 Red. masses --     3.9833                 1.2220                 3.3999
 Frc consts  --     0.8998                 0.3099                 0.9795
 IR Inten    --    44.0286               104.3354                 3.6946
 Raman Activ --     1.5365                 1.6728                 1.8042

                    43                     44                     45
                     A                      A                      A
 Frequencies --   716.0947               747.5176               752.3034
 Red. masses --     1.1250                 1.1045                 1.0616
 Frc consts  --     0.3399                 0.3636                 0.3540
 IR Inten    --    78.6610                88.6035                79.8551
 Raman Activ --     1.2167                 1.1905                 1.5693

                    46                     47                     48
                     A                      A                      A
 Frequencies --   797.3586               819.0160               851.9852
 Red. masses --     1.0849                 1.1139                 1.7697
 Frc consts  --     0.4064                 0.4402                 0.7568
 IR Inten    --   157.1383               103.0405                 6.8279
 Raman Activ --     4.0125                 1.0434                 0.6274

                    49                     50                     51
                     A                      A                      A
 Frequencies --   861.6218               910.9688               964.6091
 Red. masses --     1.6385                 5.3227                 6.4666
 Frc consts  --     0.7167                 2.6025                 3.5451
 IR Inten    --     9.2255                88.5991                32.9867
 Raman Activ --     1.0600                 2.3161                 0.7503

                    52                     53                     54
                     A                      A                      A
 Frequencies --   967.1670               969.9083               987.3040
 Red. masses --     4.4916                 5.6508                 4.9660
 Frc consts  --     2.4754                 3.1320                 2.8520
 IR Inten    --   102.8568               116.9921               152.5738
 Raman Activ --     1.3375                 0.6700                 0.9168

                    55                     56                     57
                     A                      A                      A
 Frequencies --  1002.4928              1011.7585              1025.8700
 Red. masses --     5.4654                 5.4179                 6.3881
 Frc consts  --     3.2362                 3.2676                 3.9610
 IR Inten    --   260.9860                69.7921                85.7390
 Raman Activ --     2.2196                 4.3311                 1.9917

                    58                     59                     60
                     A                      A                      A
 Frequencies --  1037.2534              1047.6837              1056.6756
 Red. masses --     7.1272                 4.6253                 6.1182
 Frc consts  --     4.5179                 2.9912                 4.0249
 IR Inten    --   399.2293                11.7320               235.3856
 Raman Activ --     1.8420                 8.1264                 4.9961

                    61                     62                     63
                     A                      A                      A
 Frequencies --  1063.7999              1072.8240              1082.0769
 Red. masses --     4.5040                 3.8304                 4.7681
 Frc consts  --     3.0031                 2.5975                 3.2894
 IR Inten    --    36.6990                47.8576                25.7489
 Raman Activ --     4.1645                24.7328                 1.9736

                    64                     65                     66
                     A                      A                      A
 Frequencies --  1092.2714              1099.4858              1109.0607
 Red. masses --     2.6991                 2.6997                 2.6021
 Frc consts  --     1.8973                 1.9228                 1.8858
 IR Inten    --    21.5094                19.5572                50.6908
 Raman Activ --     8.6834                 5.7321                 2.2861

                    67                     68                     69
                     A                      A                      A
 Frequencies --  1115.3758              1130.8750              1132.9790
 Red. masses --     2.3505                 2.7928                 2.2971
 Frc consts  --     1.7229                 2.1044                 1.7373
 IR Inten    --    46.1138                31.2610                28.8292
 Raman Activ --     3.2616                11.3021                 2.6690

                    70                     71                     72
                     A                      A                      A
 Frequencies --  1145.1003              1146.2918              1154.1077
 Red. masses --     2.9495                 2.2386                 1.8167
 Frc consts  --     2.2787                 1.7331                 1.4257
 IR Inten    --    65.3249                 2.7744                 5.2222
 Raman Activ --     2.1593                 5.8566                 2.3756

                    73                     74                     75
                     A                      A                      A
 Frequencies --  1159.5643              1166.5328              1172.3848
 Red. masses --     1.8793                 1.7405                 1.6340
 Frc consts  --     1.4888                 1.3955                 1.3232
 IR Inten    --     9.3199                 1.9941                 8.4052
 Raman Activ --     4.5975                 2.7051                 1.4112

                    76                     77                     78
                     A                      A                      A
 Frequencies --  1199.5948              1203.9232              1216.7690
 Red. masses --     1.4211                 1.3976                 1.1694
 Frc consts  --     1.2048                 1.1935                 1.0201
 IR Inten    --    27.1420                 7.5577                 3.6275
 Raman Activ --     4.0424                 0.5506                 2.4001

                    79                     80                     81
                     A                      A                      A
 Frequencies --  1227.1678              1237.1149              1260.7188
 Red. masses --     1.2743                 1.2553                 1.3564
 Frc consts  --     1.1307                 1.1320                 1.2702
 IR Inten    --     5.9876                 6.6476                17.1891
 Raman Activ --     1.8654                 1.2951                 1.7200

                    82                     83                     84
                     A                      A                      A
 Frequencies --  1269.0036              1274.1763              1282.9002
 Red. masses --     1.1803                 1.2354                 1.3014
 Frc consts  --     1.1199                 1.1817                 1.2620
 IR Inten    --     3.6319                11.2350                 8.3867
 Raman Activ --     3.6635                 4.7302                 1.1301

                    85                     86                     87
                     A                      A                      A
 Frequencies --  1287.2267              1291.3949              1300.6216
 Red. masses --     1.3319                 1.2715                 1.3304
 Frc consts  --     1.3002                 1.2493                 1.3259
 IR Inten    --    11.6536                 4.4135                30.5773
 Raman Activ --     1.0947                 1.1797                 2.7326

                    88                     89                     90
                     A                      A                      A
 Frequencies --  1309.7369              1320.4011              1338.1345
 Red. masses --     1.3600                 1.2608                 1.3059
 Frc consts  --     1.3745                 1.2951                 1.3777
 IR Inten    --    20.9126                11.7193                57.8076
 Raman Activ --     2.1993                12.8905                 4.4300

                    91                     92                     93
                     A                      A                      A
 Frequencies --  1342.3347              1346.3726              1349.3651
 Red. masses --     1.1788                 1.2048                 1.2446
 Frc consts  --     1.2515                 1.2867                 1.3351
 IR Inten    --    21.1858                35.8275                35.8079
 Raman Activ --     1.6515                 8.1781                 6.2942

                    94                     95                     96
                     A                      A                      A
 Frequencies --  1350.1829              1361.7104              1365.1468
 Red. masses --     1.3332                 1.3057                 1.3434
 Frc consts  --     1.4320                 1.4265                 1.4750
 IR Inten    --     3.1386                 6.7624                24.1299
 Raman Activ --     3.3909                 1.7126                 1.7104

                    97                     98                     99
                     A                      A                      A
 Frequencies --  1368.7491              1377.7279              1392.6181
 Red. masses --     1.7903                 1.7160                 1.3187
 Frc consts  --     1.9762                 1.9191                 1.5068
 IR Inten    --     6.0047                 8.2256                 1.0132
 Raman Activ --     8.7487                 5.0881                 5.2558

                   100                    101                    102
                     A                      A                      A
 Frequencies --  1427.4901              1432.2565              1442.2950
 Red. masses --     1.3779                 1.3826                 1.3653
 Frc consts  --     1.6543                 1.6710                 1.6734
 IR Inten    --    43.1099                15.1355                46.2295
 Raman Activ --     1.0096                 1.5411                 1.5468

                   103                    104                    105
                     A                      A                      A
 Frequencies --  1464.2181              1467.7985              1472.2350
 Red. masses --     1.0843                 1.2635                 1.1334
 Frc consts  --     1.3697                 1.6039                 1.4475
 IR Inten    --     8.1138                34.9619                 0.0574
 Raman Activ --     3.3133                 2.6551                 3.3955

                   106                    107                    108
                     A                      A                      A
 Frequencies --  1477.0716              1504.7297              3256.4591
 Red. masses --     1.3268                 1.2619                 1.0588
 Frc consts  --     1.7056                 1.6834                 6.6154
 IR Inten    --    37.7445                32.8914                26.0250
 Raman Activ --     4.0186                 0.9101                51.6536

                   109                    110                    111
                     A                      A                      A
 Frequencies --  3259.4173              3262.6935              3263.1490
 Red. masses --     1.0629                 1.0798                 1.0766
 Frc consts  --     6.6534                 6.7726                 6.7546
 IR Inten    --   205.3383                17.8585                67.8101
 Raman Activ --    19.1335                30.2662               226.2530

                   112                    113                    114
                     A                      A                      A
 Frequencies --  3272.4237              3274.4044              3275.8403
 Red. masses --     1.0824                 1.0823                 1.0684
 Frc consts  --     6.8292                 6.8370                 6.7553
 IR Inten    --    10.0878                16.0415               433.4341
 Raman Activ --    23.0824                15.9097               303.2239

                   115                    116                    117
                     A                      A                      A
 Frequencies --  3281.0936              3286.6874              3287.8790
 Red. masses --     1.0828                 1.0844                 1.0865
 Frc consts  --     6.8683                 6.9019                 6.9199
 IR Inten    --     9.9801                12.2306                13.1865
 Raman Activ --   114.5050                44.2974                33.6691

                   118                    119                    120
                     A                      A                      A
 Frequencies --  3291.5975              3299.2656              3304.1422
 Red. masses --     1.0853                 1.0870                 1.0862
 Frc consts  --     6.9280                 6.9710                 6.9868
 IR Inten    --    28.4684                70.0148                81.9977
 Raman Activ --    40.8631                 5.0794                13.5064

                   121                    122                    123
                     A                      A                      A
 Frequencies --  3317.1936              3324.0773              3324.6080
 Red. masses --     1.1057                 1.0988                 1.0749
 Frc consts  --     7.1684                 7.1533                 6.9999
 IR Inten    --    38.2135               165.2205               382.7400
 Raman Activ --    27.6338                62.3318               110.2385

                   124                    125                    126
                     A                      A                      A
 Frequencies --  3354.4837              3367.5666              3369.9439
 Red. masses --     1.0663                 1.0682                 1.0702
 Frc consts  --     7.0692                 7.1376                 7.1609
 IR Inten    --    34.0765                38.3980                43.8950
 Raman Activ --   101.0318               139.0170               150.3220

                   127                    128                    129
                     A                      A                      A
 Frequencies --  3373.7692              3890.2042              3890.6078
 Red. masses --     1.0653                 1.0677                 1.0674
 Frc consts  --     7.1441                 9.5198                 9.5193
 IR Inten    --    47.9113                93.7733                61.6681
 Raman Activ --   126.3882                66.4234               124.0928

 - Thermochemistry -
 -------------------
 Temperature   298.150 Kelvin.  Pressure   1.00000 Atm.
 Atom     1 has atomic number  8 and mass  15.99491

 Molecular mass:   342.11621 amu.
 Principal axes and moments of inertia in atomic units:
                           1         2         3
     Eigenvalues --  4398.30588********************
           X            0.99997  -0.00782   0.00050
           Y            0.00782   0.99997  -0.00019
           Z           -0.00050   0.00020   1.00000
 This molecule is an asymmetric top.
 Rotational symmetry number  1.
 Warning -- assumption of classical behavior for rotation
           may cause significant error
 Rotational temperatures (Kelvin)      0.01969     0.00696     0.00527
 Rotational constants (GHZ):           0.41033     0.14493     0.10986
    6 imaginary frequencies ignored.
 Zero-point vibrational energy     973384.2 (Joules/Mol)
                                  232.64440 (Kcal/Mol)
 Warning -- explicit consideration of  34 degrees of freedom as
           vibrations may cause significant error
 Vibrational temperatures:     42.49    58.21   112.04   140.60   145.17
          (Kelvin)            185.99   238.67   239.51   272.64   295.92
                              333.70   371.65   400.92   416.66   441.88
                              447.45   460.84   477.22   489.58   512.93
                              535.08   572.39   588.29   615.72   633.63
                              676.38   715.72   740.78   747.67   797.21
                              832.65   844.26   872.35   890.90   943.94
                             1006.06  1030.30  1075.51  1082.40  1147.22
                             1178.38  1225.82  1239.68  1310.68  1387.86
                             1391.54  1395.48  1420.51  1442.36  1455.69
                             1476.00  1492.37  1507.38  1520.32  1530.57
                             1543.55  1556.87  1571.53  1581.91  1595.69
                             1604.77  1627.07  1630.10  1647.54  1649.26
                             1660.50  1668.35  1678.38  1686.80  1725.95
                             1732.17  1750.66  1765.62  1779.93  1813.89
                             1825.81  1833.25  1845.80  1852.03  1858.03
                             1871.30  1884.42  1899.76  1925.27  1931.32
                             1937.13  1941.43  1942.61  1959.20  1964.14
                             1969.32  1982.24  2003.66  2053.84  2060.70
                             2075.14  2106.68  2111.83  2118.22  2125.17
                             2164.97  4685.31  4689.57  4694.28  4694.94
                             4708.28  4711.13  4713.20  4720.76  4728.80
                             4730.52  4735.87  4746.90  4753.92  4772.70
                             4782.60  4783.36  4826.35  4845.17  4848.59
                             4854.10  5597.13  5597.71

 Zero-point correction=                           0.370742 (Hartree/Particle)
 Thermal correction to Energy=                    0.389918
 Thermal correction to Enthalpy=                  0.390862
 Thermal correction to Gibbs Free Energy=         0.323644
 Sum of electronic and zero-point Energies=          -1297.624204
 Sum of electronic and thermal Energies=             -1297.605028
 Sum of electronic and thermal Enthalpies=           -1297.604084
 Sum of electronic and thermal Free Energies=        -1297.671303

                     E (Thermal)             CV                S
                      KCal/Mol        Cal/Mol-Kelvin    Cal/Mol-Kelvin
 Total                  244.677             78.160            141.474
 Electronic               0.000              0.000              0.000
 Translational            0.889              2.981             43.384
 Rotational               0.889              2.981             35.152
 Vibrational            242.900             72.199             62.938
 Vibration     1          0.593              1.984              5.860
 Vibration     2          0.594              1.981              5.237
 Vibration     3          0.599              1.964              3.944
 Vibration     4          0.603              1.951              3.499
 Vibration     5          0.604              1.948              3.437
 Vibration     6          0.612              1.924              2.957
 Vibration     7          0.624              1.884              2.482
 Vibration     8          0.624              1.884              2.475
 Vibration     9          0.633              1.854              2.233
 Vibration    10          0.640              1.832              2.082
 Vibration    11          0.653              1.792              1.864
 Vibration    12          0.667              1.749              1.673
 Vibration    13          0.679              1.713              1.542
 Vibration    14          0.686              1.693              1.476
 Vibration    15          0.697              1.660              1.378
 Vibration    16          0.700              1.653              1.357
 Vibration    17          0.706              1.635              1.309
 Vibration    18          0.714              1.612              1.252
 Vibration    19          0.720              1.595              1.211
 Vibration    20          0.732              1.562              1.137
 Vibration    21          0.744              1.530              1.072
 Vibration    22          0.764              1.475              0.971
 Vibration    23          0.773              1.451              0.931
 Vibration    24          0.789              1.409              0.865
 Vibration    25          0.800              1.382              0.825
 Vibration    26          0.827              1.316              0.737
 Vibration    27          0.853              1.256              0.665
 Vibration    28          0.870              1.217              0.622
 Vibration    29          0.875              1.206              0.611
 Vibration    30          0.909              1.131              0.536
 Vibration    31          0.935              1.077              0.488
 Vibration    32          0.944              1.060              0.473
 Vibration    33          0.965              1.018              0.439
 Vibration    34          0.979              0.991              0.418

 Normal termination of Gaussian 09 at Mon Mar 28 14:16:35 2016.
