 Gaussian 09, Revision B.01,
 Gaussian 09:  EM64L-G09RevB.01 12-Aug-2010

 ------------------------------------------------
 # freq=raman b3lyp/6-31+g(d,p) geom=connectivity
 ------------------------------------------------

 -------------
 500 10000.com
 -------------
 Symbolic Z-matrix:
 Charge =  0 Multiplicity = 1

                         Standard orientation:
 ---------------------------------------------------------------------
 Center     Atomic      Atomic             Coordinates (Angstroms)
 Number     Number       Type             X           Y           Z
 ---------------------------------------------------------------------
      1          8           0        5.109999   -0.368633   -0.662161
      2          6           0        3.906644    0.023506    0.013362
      3          6           0        3.294372    1.356029   -0.385612
      4          8           0        4.138228    2.442233    0.021976
      5          1           0        5.109601    2.204415   -0.006107
      6          6           0        1.915835    1.696861    0.157753
      7          8           0        1.436136    3.021701   -0.114593
      8          1           0        2.131099    3.688522    0.155190
      9          6           0        3.292376   -2.351704    0.679786
     10          8           0        2.697785   -3.647133    0.515241
     11          1           0        3.242083   -4.392825    0.900268
     12          6           0        2.849596   -1.069411   -0.006615
     13          8           0        1.477558   -0.707855    0.208704
     14          6           0        1.071342    0.544569   -0.362159
     15          8           0       -0.150122    0.648742    0.384023
     16          6           0       -1.402582    0.248343   -0.190915
     17          6           0       -1.679622   -1.237877   -0.035951
     18          8           0       -0.763212   -2.163153   -0.638170
     19          1           0        0.131754   -1.756087   -0.454970
     20          6           0       -3.087947   -1.653966   -0.429040
     21          8           0       -3.253319   -3.023001   -0.031953
     22          1           0       -2.424359   -3.465855   -0.375485
     23          6           0       -2.455307    2.626192    0.087016
     24          8           0       -3.471370    3.560685    0.476516
     25          1           0       -3.486484    4.404340   -0.061274
     26          6           0       -2.515355    1.130614    0.351585
     27          8           0       -3.739548    0.640578   -0.214629
     28          6           0       -4.068882   -0.687875    0.216683
     29          8           0       -5.408407   -0.961656   -0.219137
     30          1           0       -6.022956   -0.762531    0.490989
     31          1           0       -4.006379   -0.755636    1.282705
     32          1           0       -3.185599   -1.587474   -1.492498
     33          1           0       -1.612527   -1.421834    1.015980
     34          1           0       -1.337756    0.441810   -1.241281
     35          1           0       -2.559549    0.987414    1.411038
     36          1           0       -2.340320    2.736293   -0.971075
     37          1           0        5.860609   -0.244535   -0.076683
     38          1           0        3.254371   -2.146615    1.729259
     39          1           0        4.325388   -2.472998    0.428644
     40          1           0       -1.547014    2.970939    0.535405
     41          1           0        2.843082   -1.353578   -1.038170
     42          1           0        4.184273    0.135750    1.040602
     43          1           0        3.233471    1.373883   -1.453728
     44          1           0        1.962876    1.598177    1.222154
     45          1           0        0.931681    0.526669   -1.422854
 ---------------------------------------------------------------------

 SCF Done:  E(RB3LYP) =  -1297.90388062     A.U. after   13 cycles

 The electronic state is 1-A.
 Alpha  occ. eigenvalues --  -19.21443 -19.21022 -19.19626 -19.18760 -19.17909
 Alpha  occ. eigenvalues --  -19.17647 -19.16156 -19.16024 -19.15869 -19.15461
 Alpha  occ. eigenvalues --  -19.14563 -10.32742 -10.29172 -10.28994 -10.27744
 Alpha  occ. eigenvalues --  -10.27521 -10.27263 -10.26040 -10.25511 -10.25122
 Alpha  occ. eigenvalues --  -10.23690 -10.23253 -10.23149  -1.11359  -1.08488
 Alpha  occ. eigenvalues --   -1.06660  -1.06034  -1.04106  -1.03444  -1.03098
 Alpha  occ. eigenvalues --   -1.02708  -1.01220  -1.00312  -0.99720  -0.83649
 Alpha  occ. eigenvalues --   -0.82841  -0.78808  -0.77691  -0.72996  -0.70136
 Alpha  occ. eigenvalues --   -0.68214  -0.65333  -0.64144  -0.62843  -0.61284
 Alpha  occ. eigenvalues --   -0.59740  -0.58401  -0.57257  -0.55687  -0.54333
 Alpha  occ. eigenvalues --   -0.53969  -0.53708  -0.53018  -0.52233  -0.51732
 Alpha  occ. eigenvalues --   -0.51233  -0.49938  -0.48477  -0.48015  -0.47695
 Alpha  occ. eigenvalues --   -0.46310  -0.45721  -0.44517  -0.44002  -0.43490
 Alpha  occ. eigenvalues --   -0.43302  -0.42363  -0.41206  -0.40386  -0.39930
 Alpha  occ. eigenvalues --   -0.39380  -0.37813  -0.37214  -0.36931  -0.36036
 Alpha  occ. eigenvalues --   -0.35626  -0.34578  -0.34068  -0.33737  -0.33452
 Alpha  occ. eigenvalues --   -0.31789  -0.31603  -0.31072  -0.30326  -0.29767
 Alpha  occ. eigenvalues --   -0.29568  -0.29029  -0.27977  -0.27161  -0.26667
 Alpha  occ. eigenvalues --   -0.26113
 Alpha virt. eigenvalues --   -0.04749  -0.02311  -0.01048  -0.00333  -0.00068
 Alpha virt. eigenvalues --    0.00945   0.01110   0.02037   0.02716   0.02985
 Alpha virt. eigenvalues --    0.03716   0.04290   0.04754   0.05259   0.05792

 Mulliken atomic charges:
              1
     1  O   -0.511503
     2  C   -0.501448
     3  C    0.273541
     4  O   -0.570066
     5  H    0.354800
     6  C    0.076301
     7  O   -0.503410
     8  H    0.377380
     9  C   -0.355190
    10  O   -0.541409
    11  H    0.361698
    12  C    0.451888
    13  O   -0.391955
    14  C    0.173195
    15  O   -0.278122
    16  C   -0.266332
    17  C    0.141340
    18  O   -0.581768
    19  H    0.429961
    20  C   -0.071719
    21  O   -0.481041
    22  H    0.371084
    23  C   -0.138905
    24  O   -0.539320
    25  H    0.352616
    26  C    0.198637
    27  O   -0.294351
    28  C    0.320401
    29  O   -0.510877
    30  H    0.348068
    31  H    0.114766
    32  H    0.148012
    33  H    0.145244
    34  H    0.122836
    35  H    0.127495
    36  H    0.118831
    37  H    0.365091
    38  H    0.133180
    39  H    0.143851
    40  H    0.159140
    41  H    0.141828
    42  H    0.140061
    43  H    0.149360
    44  H    0.151173
    45  H    0.145638
 Sum of Mulliken atomic charges =   0.00000

 Dipole moment (field-independent basis, Debye):
    X=             10.1283    Y=              2.0801    Z=              1.9585  Tot=             10.5235
 Quadrupole moment (field-independent basis, Debye-Ang):
   XX=           -119.8976   YY=           -140.2601   ZZ=           -137.9752
   XY=            -11.2460   XZ=              4.4227   YZ=             -9.0802

  Exact polarizability: 221.625  -0.218 202.837  -0.335  -0.835 142.818
 Approx polarizability: 261.069  -1.993 259.114   0.897   0.346 231.088

 ******    7 imaginary frequencies (negative Signs) ******

                     1                      2                      3
                     A                      A                      A
 Frequencies --  -341.0495              -329.3191              -283.2968
 Red. masses --     1.6455                 1.6259                 1.0797
 Frc consts  --     0.1128                 0.1039                 0.0511
 IR Inten    --     6.1797                 4.5879               105.3192
 Raman Activ --     0.0644                 0.0559                 1.2710

                     4                      5                      6
                     A                      A                      A
 Frequencies --  -217.2057               -80.0509               -53.3733
 Red. masses --     1.2934                 6.7218                 6.7703
 Frc consts  --     0.0360                 0.0254                 0.0114
 IR Inten    --   107.9912                 0.4458                 0.1571
 Raman Activ --     0.6573                 0.0265                 0.0245

                     7                      8                      9
                     A                      A                      A
 Frequencies --   -37.0911                44.4103                47.9851
 Red. masses --     5.7817                 7.2805                 6.7553
 Frc consts  --     0.0047                 0.0085                 0.0092
 IR Inten    --     2.0581                 1.1902                 1.5159
 Raman Activ --     0.0590                 0.0932                 0.0258

                    10                     11                     12
                     A                      A                      A
 Frequencies --    67.7213                84.7765               108.3456
 Red. masses --     6.7223                 7.0583                 6.3344
 Frc consts  --     0.0182                 0.0299                 0.0438
 IR Inten    --     0.2667                 2.6684                 2.6748
 Raman Activ --     0.0182                 0.2711                 0.7043

                    13                     14                     15
                     A                      A                      A
 Frequencies --   132.8586               156.9865               160.8966
 Red. masses --     6.3844                 6.3858                 5.7880
 Frc consts  --     0.0664                 0.0927                 0.0883
 IR Inten    --     0.7047                 0.9118                 3.8912
 Raman Activ --     0.0796                 0.4011                 0.4429

                    16                     17                     18
                     A                      A                      A
 Frequencies --   184.6100               205.7947               250.7131
 Red. masses --     6.7958                 6.9493                 4.5480
 Frc consts  --     0.1365                 0.1734                 0.1684
 IR Inten    --     2.5346                 1.8744                14.3659
 Raman Activ --     1.0097                 1.9507                 0.4004

                    19                     20                     21
                     A                      A                      A
 Frequencies --   261.8056               282.9186               291.2630
 Red. masses --     4.1575                 4.7401                 6.1639
 Frc consts  --     0.1679                 0.2235                 0.3081
 IR Inten    --     6.4996                 3.7399                 1.2179
 Raman Activ --     0.1432                 0.6653                 0.3748

                    22                     23                     24
                     A                      A                      A
 Frequencies --   307.7711               311.7454               321.2622
 Red. masses --     5.6697                 6.9738                 5.2694
 Frc consts  --     0.3164                 0.3993                 0.3204
 IR Inten    --     2.0487                 4.1195                 1.1447
 Raman Activ --     0.7622                 4.2989                 4.5737

                    25                     26                     27
                     A                      A                      A
 Frequencies --   329.1887               350.3495               357.5425
 Red. masses --     5.1329                 4.0067                 5.6747
 Frc consts  --     0.3277                 0.2898                 0.4274
 IR Inten    --     4.3417                 2.3935                 5.3295
 Raman Activ --     2.7721                 0.3854                 0.3945

                    28                     29                     30
                     A                      A                      A
 Frequencies --   399.6709               406.8963               429.0974
 Red. masses --     5.2231                 5.2211                 6.8094
 Frc consts  --     0.4916                 0.5093                 0.7387
 IR Inten    --     1.1386                 3.5255                 3.2259
 Raman Activ --     4.8297                 4.5607                 0.5875

                    31                     32                     33
                     A                      A                      A
 Frequencies --   435.9155               464.6625               478.2248
 Red. masses --     4.2628                 3.6493                 5.2268
 Frc consts  --     0.4773                 0.4642                 0.7043
 IR Inten    --     7.0962                 7.4264                11.9680
 Raman Activ --     0.9626                 1.2461                 0.6416

                    34                     35                     36
                     A                      A                      A
 Frequencies --   519.5705               532.0543               544.1616
 Red. masses --     3.5637                 4.7453                 4.8556
 Frc consts  --     0.5668                 0.7915                 0.8471
 IR Inten    --    23.8918                16.8885                12.9235
 Raman Activ --     6.5941                 3.4131                 2.1473

                    37                     38                     39
                     A                      A                      A
 Frequencies --   569.7016               579.3574               586.8926
 Red. masses --     2.6002                 1.3709                 3.0439
 Frc consts  --     0.4972                 0.2711                 0.6177
 IR Inten    --    20.1422               111.0361                60.0657
 Raman Activ --     1.8755                 1.4957                 0.7496

                    40                     41                     42
                     A                      A                      A
 Frequencies --   593.0807               598.6895               632.0148
 Red. masses --     1.7781                 1.3282                 3.0250
 Frc consts  --     0.3685                 0.2805                 0.7119
 IR Inten    --    10.1579                83.4497                54.4653
 Raman Activ --     0.7174                 1.2917                 0.7373

                    43                     44                     45
                     A                      A                      A
 Frequencies --   656.9215               671.8393               684.8749
 Red. masses --     2.3901                 1.4023                 1.0607
 Frc consts  --     0.6077                 0.3729                 0.2931
 IR Inten    --    53.1100                95.3266                66.8831
 Raman Activ --     2.2873                 1.2532                 1.0628

                    46                     47                     48
                     A                      A                      A
 Frequencies --   750.5638               816.4455               819.7887
 Red. masses --     1.0849                 2.8814                 1.0765
 Frc consts  --     0.3601                 1.1316                 0.4263
 IR Inten    --   150.6663                 6.1774                35.9755
 Raman Activ --     1.4312                 5.8383                 0.7163

                    49                     50                     51
                     A                      A                      A
 Frequencies --   847.9413               928.1183               964.4202
 Red. masses --     2.7159                 5.9781                 4.8508
 Frc consts  --     1.1505                 3.0340                 2.6582
 IR Inten    --     8.1015               135.4655               128.1058
 Raman Activ --     2.7544                 4.2564                 1.1188

                    52                     53                     54
                     A                      A                      A
 Frequencies --   967.9581               985.0329               994.6114
 Red. masses --     5.6461                 4.8714                 4.6885
 Frc consts  --     3.1168                 2.7849                 2.7327
 IR Inten    --    16.3165               112.0400               130.9197
 Raman Activ --     5.2931                 2.9169                 1.5361

                    55                     56                     57
                     A                      A                      A
 Frequencies --   997.9927              1012.8535              1016.7419
 Red. masses --     4.6488                 2.7691                 3.8928
 Frc consts  --     2.7280                 1.6737                 2.3710
 IR Inten    --   121.8922               141.5819               113.6649
 Raman Activ --     0.9176                 2.3074                 3.3755

                    58                     59                     60
                     A                      A                      A
 Frequencies --  1035.6491              1054.0649              1063.8531
 Red. masses --     5.3781                 3.1315                 4.1166
 Frc consts  --     3.3986                 2.0499                 2.7451
 IR Inten    --   202.2936                56.2254               133.5529
 Raman Activ --     1.5300                 7.3877                 1.9376

                    61                     62                     63
                     A                      A                      A
 Frequencies --  1074.5182              1079.6526              1091.5387
 Red. masses --     5.3662                 5.4275                 5.0472
 Frc consts  --     3.6505                 3.7275                 3.5431
 IR Inten    --    30.1913               229.8149               111.1657
 Raman Activ --    14.3941                 3.3182                 8.8810

                    64                     65                     66
                     A                      A                      A
 Frequencies --  1104.9689              1109.3585              1114.6353
 Red. masses --     2.7797                 2.6547                 3.1732
 Frc consts  --     1.9997                 1.9249                 2.3228
 IR Inten    --     2.2922                12.9697                 1.0107
 Raman Activ --     5.2857                 4.6767                 3.3873

                    67                     68                     69
                     A                      A                      A
 Frequencies --  1130.1569              1132.9837              1142.6506
 Red. masses --     3.0043                 2.4659                 1.8553
 Frc consts  --     2.2609                 1.8649                 1.4272
 IR Inten    --    35.6900                92.9252                18.5671
 Raman Activ --     5.5834                 3.1379                 3.3028

                    70                     71                     72
                     A                      A                      A
 Frequencies --  1153.6079              1159.1288              1168.4844
 Red. masses --     1.9215                 3.1243                 2.1367
 Frc consts  --     1.5066                 2.4732                 1.7188
 IR Inten    --    45.4111               101.5153                17.1569
 Raman Activ --     1.1607                 2.5032                 3.0309

                    73                     74                     75
                     A                      A                      A
 Frequencies --  1176.3317              1178.1723              1193.9180
 Red. masses --     2.2200                 1.9331                 1.8976
 Frc consts  --     1.8099                 1.5809                 1.5937
 IR Inten    --     3.2863                 4.2991                13.1102
 Raman Activ --     7.0903                 4.5942                 4.0994

                    76                     77                     78
                     A                      A                      A
 Frequencies --  1208.3993              1221.4764              1227.0789
 Red. masses --     1.4754                 1.4811                 1.4869
 Frc consts  --     1.2693                 1.3020                 1.3191
 IR Inten    --    11.6464                 3.0103                 3.9081
 Raman Activ --     1.8071                 1.7088                 0.6513

                    79                     80                     81
                     A                      A                      A
 Frequencies --  1242.0540              1253.6189              1263.5882
 Red. masses --     1.3335                 1.2217                 1.3325
 Frc consts  --     1.2120                 1.1312                 1.2535
 IR Inten    --    12.9277                 6.0906                10.5830
 Raman Activ --     4.2618                 1.3827                 1.3003

                    82                     83                     84
                     A                      A                      A
 Frequencies --  1274.6021              1286.6857              1296.4419
 Red. masses --     1.1639                 1.3105                 1.2952
 Frc consts  --     1.1141                 1.2783                 1.2826
 IR Inten    --    18.0327                27.1481                25.0764
 Raman Activ --     2.6666                 1.5676                 3.3925

                    85                     86                     87
                     A                      A                      A
 Frequencies --  1305.1540              1308.8665              1319.5978
 Red. masses --     1.2310                 1.2487                 1.2659
 Frc consts  --     1.2354                 1.2603                 1.2987
 IR Inten    --    34.4004                 5.6132                42.9067
 Raman Activ --     7.2401                 8.7485                 1.8809

                    88                     89                     90
                     A                      A                      A
 Frequencies --  1321.3299              1325.7029              1333.1711
 Red. masses --     1.2620                 1.2621                 1.3196
 Frc consts  --     1.2981                 1.3069                 1.3819
 IR Inten    --     6.1696                14.8159                15.4650
 Raman Activ --     6.1460                 7.3720                 7.6490

                    91                     92                     93
                     A                      A                      A
 Frequencies --  1341.9269              1351.2963              1354.6169
 Red. masses --     1.2897                 1.2169                 1.3996
 Frc consts  --     1.3684                 1.3092                 1.5131
 IR Inten    --    38.2816                42.0355                 8.1580
 Raman Activ --     4.5976                 3.1101                 2.8818

                    94                     95                     96
                     A                      A                      A
 Frequencies --  1356.7954              1363.6504              1378.3061
 Red. masses --     1.3106                 1.4650                 1.2450
 Frc consts  --     1.4215                 1.6051                 1.3936
 IR Inten    --    13.5547                 4.6727                 5.9526
 Raman Activ --     3.8765                 7.9105                 7.6499

                    97                     98                     99
                     A                      A                      A
 Frequencies --  1379.9163              1392.3724              1399.6475
 Red. masses --     1.3418                 1.1526                 1.4938
 Frc consts  --     1.5054                 1.3166                 1.7242
 IR Inten    --    36.4819                10.5849                10.6941
 Raman Activ --     2.1349                 1.9112                 2.6233

                   100                    101                    102
                     A                      A                      A
 Frequencies --  1420.1939              1437.6390              1441.1602
 Red. masses --     1.3177                 1.4454                 1.4473
 Frc consts  --     1.5659                 1.7601                 1.7710
 IR Inten    --     5.4672                38.9756                28.2049
 Raman Activ --     7.5401                 2.0011                 1.8098

                   103                    104                    105
                     A                      A                      A
 Frequencies --  1443.4877              1461.8965              1464.4910
 Red. masses --     1.3601                 1.0778                 1.0804
 Frc consts  --     1.6698                 1.3571                 1.3652
 IR Inten    --     1.3359                 3.0247                 3.4236
 Raman Activ --     0.6396                 5.9722                 5.6176

                   106                    107                    108
                     A                      A                      A
 Frequencies --  1479.7691              1509.6392              3252.9078
 Red. masses --     1.4629                 1.2910                 1.0757
 Frc consts  --     1.8874                 1.7335                 6.7064
 IR Inten    --    29.4399                78.9556                21.0914
 Raman Activ --     2.5334                 2.6377               151.0429

                   109                    110                    111
                     A                      A                      A
 Frequencies --  3264.9442              3268.6683              3272.9924
 Red. masses --     1.0662                 1.0618                 1.0796
 Frc consts  --     6.6963                 6.6842                 6.8142
 IR Inten    --    20.1519                32.5596                 7.1076
 Raman Activ --    12.7642                59.0351               141.8884

                   112                    113                    114
                     A                      A                      A
 Frequencies --  3276.8421              3278.9886              3289.1532
 Red. masses --     1.0802                 1.0815                 1.0838
 Frc consts  --     6.8340                 6.8509                 6.9082
 IR Inten    --    27.6990                 1.1786                33.1383
 Raman Activ --    86.4458                20.2971                54.5004

                   115                    116                    117
                     A                      A                      A
 Frequencies --  3292.0153              3294.0110              3303.3438
 Red. masses --     1.0857                 1.0844                 1.0856
 Frc consts  --     6.9322                 6.9322                 6.9797
 IR Inten    --    10.2801                34.6134                26.6759
 Raman Activ --    17.1315               123.8486                27.8152

                   118                    119                    120
                     A                      A                      A
 Frequencies --  3310.3306              3314.0903              3320.9160
 Red. masses --     1.0864                 1.1019                 1.0802
 Frc consts  --     7.0144                 7.1303                 7.0186
 IR Inten    --    67.2738                37.6289               194.3936
 Raman Activ --    10.2952                43.2712                62.4294

                   121                    122                    123
                     A                      A                      A
 Frequencies --  3321.7518              3328.9784              3379.9652
 Red. masses --     1.1024                 1.0741                 1.0652
 Frc consts  --     7.1665                 7.0133                 7.1697
 IR Inten    --    34.0144               443.0984                47.8905
 Raman Activ --    61.0918               179.1658                42.3613

                   124                    125                    126
                     A                      A                      A
 Frequencies --  3383.7484              3384.0964              3386.6571
 Red. masses --     1.0690                 1.0669                 1.0684
 Frc consts  --     7.2114                 7.1987                 7.2201
 IR Inten    --    67.5356                21.2156                71.7164
 Raman Activ --   147.0397               147.4192               193.7273

                   127                    128                    129
                     A                      A                      A
 Frequencies --  3399.4203              3914.3971              3918.0128
 Red. masses --     1.0662                 1.0680                 1.0674
 Frc consts  --     7.2597                 9.6421                 9.6540
 IR Inten    --    76.4019                76.5793                59.2339
 Raman Activ --   108.3604                92.5922               131.8766

 - Thermochemistry -
 -------------------
 Temperature   298.150 Kelvin.  Pressure   1.00000 Atm.
 Atom     1 has atomic number  8 and mass  15.99491

 Molecular mass:   342.11621 amu.
 Principal axes and moments of inertia in atomic units:
                           1         2         3
     Eigenvalues --  4957.59670********************
           X            0.99997  -0.00789   0.00114
           Y            0.00789   0.99996  -0.00488
           Z           -0.00110   0.00489   0.99999
 This molecule is an asymmetric top.
 Rotational symmetry number  1.
 Warning -- assumption of classical behavior for rotation
           may cause significant error
 Rotational temperatures (Kelvin)      0.01747     0.00721     0.00524
 Rotational constants (GHZ):           0.36404     0.15015     0.10917
    7 imaginary frequencies ignored.
 Zero-point vibrational energy     972740.5 (Joules/Mol)
                                  232.49056 (Kcal/Mol)
 Warning -- explicit consideration of  34 degrees of freedom as
           vibrations may cause significant error
 Vibrational temperatures:     63.90    69.04    97.44   121.97   155.88
          (Kelvin)            191.15   225.87   231.49   265.61   296.09
                              360.72   376.68   407.06   419.06   442.81
                              448.53   462.22   473.63   504.07   514.42
                              575.04   585.43   617.37   627.18   668.54
                              688.06   747.55   765.51   782.93   819.67
                              833.57   844.41   853.31   861.38   909.33
                              945.16   966.63   985.38  1079.89  1174.68
                             1179.49  1220.00  1335.35  1387.58  1392.67
                             1417.24  1431.02  1435.89  1457.27  1462.86
                             1490.07  1516.56  1530.65  1545.99  1553.38
                             1570.48  1589.80  1596.12  1603.71  1626.04
                             1630.11  1644.02  1659.78  1667.73  1681.19
                             1692.48  1695.13  1717.78  1738.61  1757.43
                             1765.49  1787.04  1803.68  1818.02  1833.87
                             1851.25  1865.29  1877.82  1883.16  1898.60
                             1901.10  1907.39  1918.13  1930.73  1944.21
                             1948.99  1952.12  1961.99  1983.07  1985.39
                             2003.31  2013.78  2043.34  2068.44  2073.51
                             2076.85  2103.34  2107.07  2129.05  2172.03
                             4680.20  4697.52  4702.88  4709.10  4714.64
                             4717.73  4732.35  4736.47  4739.34  4752.77
                             4762.82  4768.23  4778.05  4779.25  4789.65
                             4863.01  4868.45  4868.95  4872.64  4891.00
                             5631.94  5637.14

 Zero-point correction=                           0.370497 (Hartree/Particle)
 Thermal correction to Energy=                    0.389479
 Thermal correction to Enthalpy=                  0.390423
 Thermal correction to Gibbs Free Energy=         0.323785
 Sum of electronic and zero-point Energies=          -1297.533383
 Sum of electronic and thermal Energies=             -1297.514401
 Sum of electronic and thermal Enthalpies=           -1297.513457
 Sum of electronic and thermal Free Energies=        -1297.580095

                     E (Thermal)             CV                S
                      KCal/Mol        Cal/Mol-Kelvin    Cal/Mol-Kelvin
 Total                  244.402             77.268            140.252
 Electronic               0.000              0.000              0.000
 Translational            0.889              2.981             43.384
 Rotational               0.889              2.981             35.242
 Vibrational            242.624             71.307             61.625
 Vibration     1          0.595              1.980              5.052
 Vibration     2          0.595              1.978              4.899
 Vibration     3          0.598              1.970              4.219
 Vibration     4          0.601              1.960              3.777
 Vibration     5          0.606              1.943              3.298
 Vibration     6          0.613              1.921              2.904
 Vibration     7          0.621              1.895              2.586
 Vibration     8          0.622              1.890              2.539
 Vibration     9          0.631              1.861              2.281
 Vibration    10          0.640              1.832              2.081
 Vibration    11          0.663              1.762              1.726
 Vibration    12          0.669              1.743              1.650
 Vibration    13          0.682              1.705              1.516
 Vibration    14          0.687              1.690              1.467
 Vibration    15          0.698              1.659              1.374
 Vibration    16          0.700              1.651              1.353
 Vibration    17          0.707              1.633              1.304
 Vibration    18          0.712              1.617              1.264
 Vibration    19          0.727              1.575              1.165
 Vibration    20          0.733              1.560              1.133
 Vibration    21          0.766              1.471              0.964
 Vibration    22          0.772              1.455              0.938
 Vibration    23          0.790              1.407              0.862
 Vibration    24          0.796              1.392              0.840
 Vibration    25          0.822              1.328              0.753
 Vibration    26          0.835              1.298              0.715
 Vibration    27          0.875              1.207              0.611
 Vibration    28          0.887              1.179              0.583
 Vibration    29          0.899              1.152              0.556
 Vibration    30          0.926              1.097              0.505
 Vibration    31          0.936              1.076              0.487
 Vibration    32          0.944              1.060              0.473
 Vibration    33          0.951              1.047              0.462
 Vibration    34          0.957              1.035              0.452

 Normal termination of Gaussian 09 at Thu Jan 21 17:51:55 2016.
