 Gaussian 09, Revision B.01,
 Gaussian 09:  EM64L-G09RevB.01 12-Aug-2010

 -------------------------------------------------
 # freq=raman b3lyp/6-31+g(2d,p) geom=connectivity
 -------------------------------------------------

 -----------------
 310 5229/5229.com
 -----------------
 Symbolic Z-matrix:
 Charge =  0 Multiplicity = 1

                         Standard orientation:
 ---------------------------------------------------------------------
 Center     Atomic      Atomic             Coordinates (Angstroms)
 Number     Number       Type             X           Y           Z
 ---------------------------------------------------------------------
      1          8           0        4.963430   -0.278772   -0.254025
      2          6           0        3.615840   -0.047267    0.181508
      3          6           0        3.208104    1.270451   -0.456516
      4          8           0        4.106850    2.345185   -0.146663
      5          1           0        4.939642    2.060761   -0.620521
      6          6           0        1.828983    1.523628    0.131017
      7          8           0        1.219852    2.677615   -0.464942
      8          1           0        0.341099    2.870307   -0.028486
      9          6           0        3.155319   -2.589138    0.386109
     10          8           0        4.354357   -3.175672   -0.141291
     11          1           0        4.184216   -4.135155   -0.364786
     12          6           0        2.771224   -1.247252   -0.216772
     13          8           0        1.475963   -0.876578    0.275142
     14          6           0        0.898047    0.360047   -0.168584
     15          8           0       -0.283158    0.595229    0.610229
     16          6           0       -1.507665    0.210907   -0.030230
     17          6           0       -2.034240   -1.155285    0.380610
     18          8           0       -1.089229   -2.172995    0.017409
     19          1           0       -0.177529   -1.802678    0.195107
     20          6           0       -3.354617   -1.563137   -0.251224
     21          8           0       -3.932795   -2.794015    0.208973
     22          1           0       -4.753050   -2.993341   -0.327791
     23          6           0       -2.250966    2.616848    0.006083
     24          8           0       -1.130132    3.304263    0.582019
     25          1           0       -1.301418    4.289109    0.556400
     26          6           0       -2.568163    1.194227    0.436075
     27          8           0       -3.796279    0.913664   -0.252914
     28          6           0       -4.324860   -0.407997   -0.070312
     29          8           0       -5.580642   -0.550080   -0.748968
     30          1           0       -6.267977   -0.754526   -0.110711
     31          1           0       -3.120556    3.208543    0.202581
     32          1           0       -2.103113    2.602018   -1.053548
     33          1           0       -2.704590    1.137145    1.495805
     34          1           0       -1.400657    0.261407   -1.093668
     35          1           0       -2.151405   -1.165339    1.444128
     36          1           0       -3.181243   -1.671406   -1.301519
     37          1           0       -4.580432   -0.446840    0.967991
     38          1           0        5.513215   -0.488860    0.504394
     39          1           0        2.348271   -3.272828    0.224430
     40          1           0        3.281196   -2.459339    1.440722
     41          1           0        2.740942   -1.327513   -1.283327
     42          1           0        3.601504    0.056654    1.246353
     43          1           0        3.134412    1.152575   -1.517447
     44          1           0        1.906290    1.661527    1.189273
     45          1           0        0.663410    0.318828   -1.211726
 ---------------------------------------------------------------------

 SCF Done:  E(RB3LYP) =  -1297.99644506     A.U. after   13 cycles

 The electronic state is 1-A.
 Alpha  occ. eigenvalues --  -19.18958 -19.18722 -19.18083 -19.17963 -19.17774
 Alpha  occ. eigenvalues --  -19.16749 -19.16565 -19.15669 -19.15292 -19.13936
 Alpha  occ. eigenvalues --  -19.12265 -10.30315 -10.30252 -10.26328 -10.25800
 Alpha  occ. eigenvalues --  -10.25531 -10.25238 -10.25148 -10.24686 -10.24608
 Alpha  occ. eigenvalues --  -10.24305 -10.23915 -10.23477  -1.09904  -1.08680
 Alpha  occ. eigenvalues --   -1.05751  -1.05047  -1.03926  -1.03739  -1.03047
 Alpha  occ. eigenvalues --   -1.02848  -1.01592  -1.00890  -0.99347  -0.82343
 Alpha  occ. eigenvalues --   -0.79893  -0.79698  -0.78431  -0.72103  -0.69869
 Alpha  occ. eigenvalues --   -0.66870  -0.64450  -0.63319  -0.62783  -0.61463
 Alpha  occ. eigenvalues --   -0.60171  -0.56324  -0.56000  -0.55252  -0.54820
 Alpha  occ. eigenvalues --   -0.53776  -0.53391  -0.52767  -0.52081  -0.51431
 Alpha  occ. eigenvalues --   -0.50592  -0.50159  -0.49544  -0.48023  -0.46506
 Alpha  occ. eigenvalues --   -0.46187  -0.45077  -0.44621  -0.43617  -0.43534
 Alpha  occ. eigenvalues --   -0.42712  -0.42405  -0.40743  -0.40399  -0.39064
 Alpha  occ. eigenvalues --   -0.38232  -0.37831  -0.37440  -0.36654  -0.35915
 Alpha  occ. eigenvalues --   -0.35284  -0.34872  -0.34423  -0.33923  -0.33225
 Alpha  occ. eigenvalues --   -0.32821  -0.31333  -0.30965  -0.30406  -0.29778
 Alpha  occ. eigenvalues --   -0.29362  -0.28824  -0.28463  -0.27555  -0.26449
 Alpha  occ. eigenvalues --   -0.26091
 Alpha virt. eigenvalues --   -0.01990  -0.01814  -0.01565  -0.00102   0.00386
 Alpha virt. eigenvalues --    0.00853   0.01812   0.02039   0.02962   0.03545
 Alpha virt. eigenvalues --    0.03851   0.04423   0.04869   0.05222   0.05276

 Mulliken atomic charges:
              1
     1  O   -0.553653
     2  C    0.064818
     3  C    0.044511
     4  O   -0.514670
     5  H    0.341209
     6  C   -0.084749
     7  O   -0.604464
     8  H    0.442336
     9  C   -0.292374
    10  O   -0.514363
    11  H    0.338337
    12  C    0.219897
    13  O   -0.280577
    14  C    0.331795
    15  O   -0.204441
    16  C   -0.054291
    17  C    0.263013
    18  O   -0.582582
    19  H    0.380238
    20  C    0.055042
    21  O   -0.539151
    22  H    0.340150
    23  C   -0.248662
    24  O   -0.581641
    25  H    0.361768
    26  C    0.068178
    27  O   -0.268988
    28  C    0.142144
    29  O   -0.556230
    30  H    0.340580
    31  H    0.145725
    32  H    0.160414
    33  H    0.129375
    34  H    0.121584
    35  H    0.120055
    36  H    0.125642
    37  H    0.102238
    38  H    0.333987
    39  H    0.147892
    40  H    0.145969
    41  H    0.112055
    42  H    0.119202
    43  H    0.122196
    44  H    0.131339
    45  H    0.129148
 Sum of Mulliken atomic charges =   0.00000

 Dipole moment (field-independent basis, Debye):
    X=             -2.4637    Y=             -0.4643    Z=              1.3169  Tot=              2.8319
 Quadrupole moment (field-independent basis, Debye-Ang):
   XX=           -125.6089   YY=           -134.3945   ZZ=           -137.5037
   XY=            -14.2778   XZ=             -2.3445   YZ=              4.5193

  Exact polarizability: 232.463   1.659 197.849  -0.162   0.723 144.033
 Approx polarizability: 272.162   1.878 257.903  -0.559   2.972 239.753

 ******    7 imaginary frequencies (negative Signs) ******

                     1                      2                      3
                     A                      A                      A
 Frequencies --  -259.5753              -245.9574              -214.0086
 Red. masses --     1.2964                 1.7639                 1.4245
 Frc consts  --     0.0515                 0.0629                 0.0384
 IR Inten    --    69.3060                 3.7805                30.2307
 Raman Activ --     0.4826                 0.0275                 0.3794

                     4                      5                      6
                     A                      A                      A
 Frequencies --  -202.3363               -73.9802               -53.0905
 Red. masses --     1.2656                 5.7413                 6.4516
 Frc consts  --     0.0305                 0.0185                 0.0107
 IR Inten    --   113.7178                 0.9576                 1.2844
 Raman Activ --     0.6510                 0.0201                 0.0283

                     7                      8                      9
                     A                      A                      A
 Frequencies --   -21.6469                31.4853                66.4286
 Red. masses --     7.0201                 6.6479                 6.8879
 Frc consts  --     0.0019                 0.0039                 0.0179
 IR Inten    --     0.4114                 0.3853                 1.3930
 Raman Activ --     0.0734                 0.0243                 0.0481

                    10                     11                     12
                     A                      A                      A
 Frequencies --    84.3442               111.0534               116.8620
 Red. masses --     6.0622                 5.6342                 6.2605
 Frc consts  --     0.0254                 0.0409                 0.0504
 IR Inten    --     2.7913                 2.9879                 2.5721
 Raman Activ --     0.4096                 0.1417                 0.1421

                    13                     14                     15
                     A                      A                      A
 Frequencies --   160.7713               170.3666               182.4048
 Red. masses --     6.1243                 6.4480                 7.1527
 Frc consts  --     0.0933                 0.1103                 0.1402
 IR Inten    --     3.9853                 5.3854                 1.5344
 Raman Activ --     0.2412                 0.4921                 0.6942

                    16                     17                     18
                     A                      A                      A
 Frequencies --   217.2242               236.5834               258.4761
 Red. masses --     6.8359                 5.3986                 4.3487
 Frc consts  --     0.1900                 0.1780                 0.1712
 IR Inten    --     0.5872                 1.9059                21.3885
 Raman Activ --     2.6370                 0.3679                 0.1751

                    19                     20                     21
                     A                      A                      A
 Frequencies --   280.5833               292.8848               298.3507
 Red. masses --     5.3846                 5.2087                 4.7815
 Frc consts  --     0.2498                 0.2633                 0.2508
 IR Inten    --     1.3827                 4.3696                 5.1594
 Raman Activ --     0.1859                 0.1676                 0.3715

                    22                     23                     24
                     A                      A                      A
 Frequencies --   302.1481               318.1040               324.8266
 Red. masses --     4.8683                 5.8506                 6.4462
 Frc consts  --     0.2619                 0.3488                 0.4007
 IR Inten    --     7.5322                 2.8372                 1.1189
 Raman Activ --     0.4197                 4.4909                 3.2279

                    25                     26                     27
                     A                      A                      A
 Frequencies --   344.9342               362.9407               390.6716
 Red. masses --     6.6055                 5.0190                 6.0342
 Frc consts  --     0.4630                 0.3895                 0.5426
 IR Inten    --     9.4504                 4.5271                 1.5793
 Raman Activ --     3.0872                 1.0863                 0.5476

                    28                     29                     30
                     A                      A                      A
 Frequencies --   403.8004               427.3694               429.9534
 Red. masses --     4.8700                 4.9894                 5.6686
 Frc consts  --     0.4679                 0.5369                 0.6174
 IR Inten    --    19.0774                 1.1029                 3.6848
 Raman Activ --     2.7429                 1.8051                 6.7810

                    31                     32                     33
                     A                      A                      A
 Frequencies --   439.3051               466.4062               480.5749
 Red. masses --     6.1952                 4.5942                 3.6183
 Frc consts  --     0.7044                 0.5888                 0.4924
 IR Inten    --     3.3122                 6.3424                13.2253
 Raman Activ --     1.7246                 3.0697                 0.1286

                    34                     35                     36
                     A                      A                      A
 Frequencies --   520.8335               530.2788               564.2034
 Red. masses --     3.9557                 3.3093                 4.4730
 Frc consts  --     0.6322                 0.5483                 0.8389
 IR Inten    --     2.6525                11.1697                 8.9164
 Raman Activ --     3.8862                 1.8780                 0.9763

                    37                     38                     39
                     A                      A                      A
 Frequencies --   581.2597               591.9219               604.4014
 Red. masses --     2.9183                 4.6471                 5.4874
 Frc consts  --     0.5809                 0.9593                 1.1810
 IR Inten    --    27.1341                 6.8844                19.3278
 Raman Activ --     0.6754                 1.5852                 0.5340

                    40                     41                     42
                     A                      A                      A
 Frequencies --   634.6638               670.6069               683.9618
 Red. masses --     3.9161                 1.8474                 1.7945
 Frc consts  --     0.9294                 0.4895                 0.4946
 IR Inten    --    30.4327                50.3999                46.2267
 Raman Activ --     1.1101                 0.5801                 1.1590

                    43                     44                     45
                     A                      A                      A
 Frequencies --   716.9318               723.3336               731.8302
 Red. masses --     1.0665                 1.0858                 1.1406
 Frc consts  --     0.3230                 0.3347                 0.3599
 IR Inten    --    87.5716               112.0444               117.5803
 Raman Activ --     1.8163                 1.6449                 1.6969

                    46                     47                     48
                     A                      A                      A
 Frequencies --   835.2194               843.4301               855.3859
 Red. masses --     1.0844                 1.7748                 1.5531
 Frc consts  --     0.4457                 0.7439                 0.6695
 IR Inten    --    68.7205                 4.9666                 7.9672
 Raman Activ --     0.8690                 0.7001                 0.3006

                    49                     50                     51
                     A                      A                      A
 Frequencies --   919.3103               935.8536               958.8606
 Red. masses --     2.5739                 1.6612                 3.8300
 Frc consts  --     1.2816                 0.8572                 2.0747
 IR Inten    --    76.3614                95.1448                62.0306
 Raman Activ --     1.8918                 0.9614                 0.8080

                    52                     53                     54
                     A                      A                      A
 Frequencies --   970.2545               981.6823               985.8520
 Red. masses --     6.8758                 5.5146                 5.2237
 Frc consts  --     3.8137                 3.1312                 2.9912
 IR Inten    --     4.7489               163.8837                20.9110
 Raman Activ --     2.3039                 0.8004                 1.1198

                    55                     56                     57
                     A                      A                      A
 Frequencies --   999.8170              1012.4622              1028.0645
 Red. masses --     5.2753                 6.0986                 5.5120
 Frc consts  --     3.1070                 3.6833                 3.4324
 IR Inten    --   292.5654                84.9288               241.6694
 Raman Activ --     1.9051                 3.6120                 3.3456

                    58                     59                     60
                     A                      A                      A
 Frequencies --  1034.3062              1048.3544              1055.5747
 Red. masses --     7.7094                 5.5916                 4.2978
 Frc consts  --     4.8592                 3.6208                 2.8215
 IR Inten    --   490.8481               130.0363                31.6197
 Raman Activ --     1.1355                 1.7107                15.2208

                    61                     62                     63
                     A                      A                      A
 Frequencies --  1068.1758              1075.8758              1078.2829
 Red. masses --     5.2776                 4.7450                 3.3172
 Frc consts  --     3.5479                 3.2360                 2.2724
 IR Inten    --    36.9182                13.8810                58.6646
 Raman Activ --     1.1465                25.8147                 8.8243

                    64                     65                     66
                     A                      A                      A
 Frequencies --  1085.2199              1105.3635              1110.7223
 Red. masses --     2.6288                 2.9508                 2.6930
 Frc consts  --     1.8241                 2.1242                 1.9575
 IR Inten    --     6.7733                63.4870                53.9355
 Raman Activ --     2.4847                 3.6327                 1.8806

                    67                     68                     69
                     A                      A                      A
 Frequencies --  1115.4096              1121.9015              1127.3627
 Red. masses --     2.5169                 2.2161                 2.7439
 Frc consts  --     1.8449                 1.6435                 2.0547
 IR Inten    --    14.6399                54.8620                 4.4199
 Raman Activ --     6.9843                 1.9959                 1.9407

                    70                     71                     72
                     A                      A                      A
 Frequencies --  1130.2936              1151.7181              1157.4046
 Red. masses --     2.4852                 1.9520                 1.8208
 Frc consts  --     1.8706                 1.5255                 1.4371
 IR Inten    --    24.7251                 3.7715                 9.9984
 Raman Activ --     9.4538                 1.6742                 3.7833

                    73                     74                     75
                     A                      A                      A
 Frequencies --  1161.9624              1170.2840              1178.5665
 Red. masses --     1.9022                 2.0554                 1.9863
 Frc consts  --     1.5132                 1.6585                 1.6255
 IR Inten    --    15.0164                 3.5667                 4.0076
 Raman Activ --     4.1303                 2.0635                 5.0288

                    76                     77                     78
                     A                      A                      A
 Frequencies --  1188.7896              1209.4313              1218.5812
 Red. masses --     1.2436                 1.3905                 1.3436
 Frc consts  --     1.0355                 1.1983                 1.1756
 IR Inten    --    16.0582                 3.9788                 2.9166
 Raman Activ --     2.3820                 1.3384                 0.9998

                    79                     80                     81
                     A                      A                      A
 Frequencies --  1238.8892              1253.0501              1259.4277
 Red. masses --     1.1965                 1.3228                 1.2090
 Frc consts  --     1.0820                 1.2237                 1.1299
 IR Inten    --     1.4703                 9.3274                 4.8484
 Raman Activ --     1.6409                 2.2830                 1.0807

                    82                     83                     84
                     A                      A                      A
 Frequencies --  1261.6767              1277.7652              1284.7258
 Red. masses --     1.3622                 1.2430                 1.2506
 Frc consts  --     1.2775                 1.1957                 1.2162
 IR Inten    --     7.5267                 1.8592                17.3683
 Raman Activ --     0.5981                 4.7072                 1.6708

                    85                     86                     87
                     A                      A                      A
 Frequencies --  1287.7173              1294.7047              1301.2392
 Red. masses --     1.1888                 1.3821                 1.3626
 Frc consts  --     1.1614                 1.3650                 1.3594
 IR Inten    --     5.2208                 6.8507                74.6909
 Raman Activ --     3.3930                 4.4376                 3.1253

                    88                     89                     90
                     A                      A                      A
 Frequencies --  1310.0359              1317.7007              1331.4686
 Red. masses --     1.3157                 1.2342                 1.3774
 Frc consts  --     1.3304                 1.2626                 1.4387
 IR Inten    --     1.5352                17.3525                24.3806
 Raman Activ --    12.0222                 2.4291                 1.3452

                    91                     92                     93
                     A                      A                      A
 Frequencies --  1339.1824              1350.6443              1353.2465
 Red. masses --     1.2280                 1.1570                 1.1820
 Frc consts  --     1.2975                 1.2435                 1.2754
 IR Inten    --    24.9936                43.4295                52.6103
 Raman Activ --     2.6858                 5.2603                 1.9731

                    94                     95                     96
                     A                      A                      A
 Frequencies --  1359.7996              1363.3034              1370.4557
 Red. masses --     1.3134                 1.4769                 1.7046
 Frc consts  --     1.4309                 1.6172                 1.8863
 IR Inten    --     5.2972                 2.4143                16.6334
 Raman Activ --     1.3744                 6.4004                 9.1255

                    97                     98                     99
                     A                      A                      A
 Frequencies --  1385.2364              1389.6044              1417.6883
 Red. masses --     1.4494                 1.5559                 1.2147
 Frc consts  --     1.6386                 1.7702                 1.4384
 IR Inten    --     2.8095                 3.9359                 4.8718
 Raman Activ --     5.6337                 4.6102                 4.3769

                   100                    101                    102
                     A                      A                      A
 Frequencies --  1435.7662              1451.5771              1457.4717
 Red. masses --     1.4031                 1.2671                 1.3347
 Frc consts  --     1.7042                 1.5730                 1.6704
 IR Inten    --    32.0092                36.4838                25.8380
 Raman Activ --     1.6174                 2.7242                 2.2544

                   103                    104                    105
                     A                      A                      A
 Frequencies --  1464.5072              1473.2211              1477.9776
 Red. masses --     1.1107                 1.1018                 1.2581
 Frc consts  --     1.4036                 1.4089                 1.6192
 IR Inten    --     8.7041                 6.0307                 6.2669
 Raman Activ --     2.5856                 3.4398                 1.4659

                   106                    107                    108
                     A                      A                      A
 Frequencies --  1498.9416              1516.9651              3224.8939
 Red. masses --     1.3333                 1.2379                 1.0694
 Frc consts  --     1.7650                 1.6784                 6.5525
 IR Inten    --    48.7695                47.3241               962.3318
 Raman Activ --     1.6742                 1.4794               158.7507

                   109                    110                    111
                     A                      A                      A
 Frequencies --  3246.4880              3260.8681              3264.9510
 Red. masses --     1.0826                 1.0572                 1.0587
 Frc consts  --     6.7227                 6.6230                 6.6496
 IR Inten    --    24.2372                22.3421                17.6814
 Raman Activ --    78.2831                82.4904               151.6115

                   112                    113                    114
                     A                      A                      A
 Frequencies --  3270.3784              3279.4343              3280.7834
 Red. masses --     1.0808                 1.0831                 1.0838
 Frc consts  --     6.8106                 6.8631                 6.8730
 IR Inten    --    59.2627                32.4986                34.8646
 Raman Activ --    92.7105                60.7540                65.3592

                   115                    116                    117
                     A                      A                      A
 Frequencies --  3282.6753              3285.3090              3287.3632
 Red. masses --     1.0835                 1.0849                 1.0834
 Frc consts  --     6.8790                 6.8988                 6.8984
 IR Inten    --    39.4705                24.6323                23.1983
 Raman Activ --    15.2941                55.0479               131.7034

                   118                    119                    120
                     A                      A                      A
 Frequencies --  3292.5396              3295.0666              3301.2745
 Red. masses --     1.0866                 1.0750                 1.0850
 Frc consts  --     6.9402                 6.8768                 6.9668
 IR Inten    --    10.2335               411.5213                95.4002
 Raman Activ --    17.0186               115.0190                45.8341

                   121                    122                    123
                     A                      A                      A
 Frequencies --  3306.1679              3319.5160              3320.7478
 Red. masses --     1.0861                 1.1050                 1.1056
 Frc consts  --     6.9945                 7.1741                 7.1831
 IR Inten    --   110.3162                42.0098                56.0611
 Raman Activ --    22.7886                32.2691                29.2815

                   124                    125                    126
                     A                      A                      A
 Frequencies --  3368.9014              3374.3669              3375.5414
 Red. masses --     1.0663                 1.0677                 1.0700
 Frc consts  --     7.1305                 7.1627                 7.1831
 IR Inten    --    53.4470                62.5926                40.5121
 Raman Activ --   127.8114               155.4788               137.6310

                   127                    128                    129
                     A                      A                      A
 Frequencies --  3380.3429              3886.3747              3890.1195
 Red. masses --     1.0646                 1.0674                 1.0677
 Frc consts  --     7.1671                 9.4992                 9.5196
 IR Inten    --    41.4266                63.4332                93.4196
 Raman Activ --   105.2351                87.2379                91.5544

 - Thermochemistry -
 -------------------
 Temperature   298.150 Kelvin.  Pressure   1.00000 Atm.
 Atom     1 has atomic number  8 and mass  15.99491

 Molecular mass:   342.11621 amu.
 Principal axes and moments of inertia in atomic units:
                           1         2         3
     Eigenvalues --  4424.38528********************
           X            0.99997  -0.00728  -0.00051
           Y            0.00728   0.99997  -0.00024
           Z            0.00051   0.00023   1.00000
 This molecule is an asymmetric top.
 Rotational symmetry number  1.
 Warning -- assumption of classical behavior for rotation
           may cause significant error
 Rotational temperatures (Kelvin)      0.01958     0.00699     0.00529
 Rotational constants (GHZ):           0.40791     0.14569     0.11017
    7 imaginary frequencies ignored.
 Zero-point vibrational energy     974902.3 (Joules/Mol)
                                  233.00725 (Kcal/Mol)
 Warning -- explicit consideration of  32 degrees of freedom as
           vibrations may cause significant error
 Vibrational temperatures:     45.30    95.58   121.35   159.78   168.14
          (Kelvin)            231.31   245.12   262.44   312.54   340.39
                              371.89   403.70   421.40   429.26   434.72
                              457.68   467.35   496.28   522.19   562.09
                              580.98   614.89   618.61   632.06   671.05
                              691.44   749.36   762.95   811.76   836.30
                              851.64   869.60   913.14   964.85   984.07
                             1031.50  1040.71  1052.94  1201.69  1213.51
                             1230.71  1322.68  1346.48  1379.58  1395.98
                             1412.42  1418.42  1438.51  1456.71  1479.15
                             1488.13  1508.35  1518.73  1536.86  1547.94
                             1551.41  1561.39  1590.37  1598.08  1604.82
                             1614.16  1622.02  1626.24  1657.06  1665.24
                             1671.80  1683.78  1695.69  1710.40  1740.10
                             1753.26  1782.48  1802.86  1812.03  1815.27
                             1838.42  1848.43  1852.74  1862.79  1872.19
                             1884.85  1895.88  1915.68  1926.78  1943.27
                             1947.02  1956.45  1961.49  1971.78  1993.04
                             1999.33  2039.73  2065.74  2088.49  2096.97
                             2107.10  2119.63  2126.48  2156.64  2182.57
                             4639.90  4670.97  4691.66  4697.53  4705.34
                             4718.37  4720.31  4723.03  4726.82  4729.78
                             4737.22  4740.86  4749.79  4756.83  4776.04
                             4777.81  4847.09  4854.96  4856.65  4863.55
                             5591.62  5597.01

 Zero-point correction=                           0.371321 (Hartree/Particle)
 Thermal correction to Energy=                    0.389611
 Thermal correction to Enthalpy=                  0.390555
 Thermal correction to Gibbs Free Energy=         0.325718
 Sum of electronic and zero-point Energies=          -1297.625124
 Sum of electronic and thermal Energies=             -1297.606834
 Sum of electronic and thermal Enthalpies=           -1297.605890
 Sum of electronic and thermal Free Energies=        -1297.670727

                     E (Thermal)             CV                S
                      KCal/Mol        Cal/Mol-Kelvin    Cal/Mol-Kelvin
 Total                  244.485             75.848            136.462
 Electronic               0.000              0.000              0.000
 Translational            0.889              2.981             43.384
 Rotational               0.889              2.981             35.150
 Vibrational            242.707             69.887             57.927
 Vibration     1          0.594              1.983              5.734
 Vibration     2          0.598              1.970              4.256
 Vibration     3          0.601              1.960              3.787
 Vibration     4          0.607              1.940              3.250
 Vibration     5          0.608              1.935              3.152
 Vibration     6          0.622              1.890              2.541
 Vibration     7          0.625              1.879              2.431
 Vibration     8          0.630              1.864              2.304
 Vibration     9          0.646              1.815              1.982
 Vibration    10          0.655              1.785              1.828
 Vibration    11          0.667              1.748              1.672
 Vibration    12          0.680              1.710              1.530
 Vibration    13          0.688              1.687              1.457
 Vibration    14          0.691              1.677              1.426
 Vibration    15          0.694              1.670              1.405
 Vibration    16          0.705              1.639              1.320
 Vibration    17          0.709              1.626              1.286
 Vibration    18          0.723              1.586              1.189
 Vibration    19          0.737              1.549              1.109
 Vibration    20          0.758              1.490              0.998
 Vibration    21          0.769              1.462              0.949
 Vibration    22          0.789              1.411              0.867
 Vibration    23          0.791              1.405              0.859
 Vibration    24          0.799              1.384              0.829
 Vibration    25          0.824              1.325              0.748
 Vibration    26          0.837              1.293              0.709
 Vibration    27          0.876              1.204              0.608
 Vibration    28          0.885              1.183              0.587
 Vibration    29          0.920              1.109              0.516
 Vibration    30          0.938              1.072              0.483
 Vibration    31          0.949              1.049              0.464
 Vibration    32          0.963              1.022              0.442

 Normal termination of Gaussian 09 at Wed Mar 23 17:27:10 2016.
