 Gaussian 09, Revision B.01,
 Gaussian 09:  EM64L-G09RevB.01 12-Aug-2010

 -------------------------------------------------
 # freq=raman b3lyp/6-31+g(2d,p) geom=connectivity
 -------------------------------------------------

 -----------------
 473 9033/9033.com
 -----------------
 Symbolic Z-matrix:
 Charge =  0 Multiplicity = 1

                         Standard orientation:
 ---------------------------------------------------------------------
 Center     Atomic      Atomic             Coordinates (Angstroms)
 Number     Number       Type             X           Y           Z
 ---------------------------------------------------------------------
      1          8           0        4.976212   -0.263053   -0.512880
      2          6           0        3.767763    0.052697    0.193971
      3          6           0        3.173262    1.362596   -0.299060
      4          8           0        3.947656    2.515071    0.065001
      5          1           0        4.915917    2.270999    0.008132
      6          6           0        1.731458    1.568485    0.135511
      7          8           0        1.078145    2.693486   -0.470245
      8          1           0        0.144748    2.899750   -0.175681
      9          6           0        3.178390   -2.511493    0.311065
     10          8           0        4.413964   -3.064227   -0.165229
     11          1           0        4.537106   -4.054786   -0.103182
     12          6           0        2.854470   -1.106494   -0.170002
     13          8           0        1.589635   -0.823038    0.446258
     14          6           0        0.895593    0.317749   -0.081159
     15          8           0       -0.322348    0.537453    0.643673
     16          6           0       -1.523719    0.203081   -0.066223
     17          6           0       -1.868022   -1.219312    0.343086
     18          8           0       -0.971535   -2.205354   -0.189971
     19          1           0       -0.136492   -1.845648    0.226825
     20          6           0       -3.225345   -1.586000   -0.234610
     21          8           0       -3.659597   -2.878995    0.211537
     22          1           0       -4.612950   -3.123859    0.037794
     23          6           0       -2.560697    2.556928    0.116289
     24          8           0       -1.371375    3.342588    0.278712
     25          1           0       -1.668267    4.265858    0.034960
     26          6           0       -2.698188    1.064500    0.370895
     27          8           0       -3.887327    0.738132   -0.363090
     28          6           0       -4.276336   -0.551444    0.130706
     29          8           0       -5.447037   -0.619476   -0.696170
     30          1           0       -6.228725   -0.666519   -0.140875
     31          1           0       -4.509429   -0.536254    1.174898
     32          1           0       -3.138259   -1.612130   -1.300740
     33          1           0       -1.896167   -1.293494    1.410140
     34          1           0       -1.373871    0.268935   -1.123630
     35          1           0       -2.877124    0.904343    1.413599
     36          1           0       -3.300915    3.023794    0.731930
     37          1           0       -2.868407    2.705950   -0.897617
     38          1           0        5.677233   -0.445119    0.117216
     39          1           0        2.383677   -3.159774    0.006000
     40          1           0        3.209225   -2.498806    1.380545
     41          1           0        2.727191   -1.125596   -1.232234
     42          1           0        3.940932    0.083857    1.249406
     43          1           0        3.170975    1.316164   -1.368050
     44          1           0        1.750069    1.751824    1.189523
     45          1           0        0.690615    0.182043   -1.122537
 ---------------------------------------------------------------------

 SCF Done:  E(RB3LYP) =  -1297.97565927     A.U. after   14 cycles

 The electronic state is 1-A.
 Alpha  occ. eigenvalues --  -19.18960 -19.18170 -19.18032 -19.17495 -19.17456
 Alpha  occ. eigenvalues --  -19.16088 -19.15822 -19.15645 -19.14969 -19.14904
 Alpha  occ. eigenvalues --  -19.11816 -10.30531 -10.29753 -10.26277 -10.25547
 Alpha  occ. eigenvalues --  -10.25231 -10.25103 -10.24850 -10.24797 -10.24372
 Alpha  occ. eigenvalues --  -10.24231 -10.23749 -10.23195  -1.10300  -1.09158
 Alpha  occ. eigenvalues --   -1.05846  -1.05029  -1.03825  -1.03214  -1.02516
 Alpha  occ. eigenvalues --   -1.01893  -1.01423  -1.01182  -0.98588  -0.82164
 Alpha  occ. eigenvalues --   -0.79476  -0.79286  -0.78040  -0.71895  -0.69755
 Alpha  occ. eigenvalues --   -0.67060  -0.64923  -0.63155  -0.62406  -0.61812
 Alpha  occ. eigenvalues --   -0.59961  -0.56715  -0.55552  -0.54839  -0.54633
 Alpha  occ. eigenvalues --   -0.53650  -0.53264  -0.52901  -0.52249  -0.51006
 Alpha  occ. eigenvalues --   -0.50256  -0.49248  -0.49135  -0.48714  -0.46354
 Alpha  occ. eigenvalues --   -0.45511  -0.44971  -0.44171  -0.43731  -0.42994
 Alpha  occ. eigenvalues --   -0.42174  -0.41218  -0.40955  -0.39879  -0.39782
 Alpha  occ. eigenvalues --   -0.38144  -0.37837  -0.37767  -0.36693  -0.35604
 Alpha  occ. eigenvalues --   -0.35166  -0.35073  -0.34569  -0.34225  -0.32162
 Alpha  occ. eigenvalues --   -0.32132  -0.30961  -0.30615  -0.30208  -0.29510
 Alpha  occ. eigenvalues --   -0.28958  -0.28657  -0.28412  -0.26985  -0.26778
 Alpha  occ. eigenvalues --   -0.25420
 Alpha virt. eigenvalues --   -0.02135  -0.02124  -0.01573  -0.00056   0.00159
 Alpha virt. eigenvalues --    0.01222   0.02157   0.02339   0.03346   0.03597
 Alpha virt. eigenvalues --    0.03750   0.04349   0.05119   0.05524   0.05729

 Mulliken atomic charges:
              1
     1  O   -0.518072
     2  C   -0.056766
     3  C    0.336786
     4  O   -0.556452
     5  H    0.331850
     6  C   -0.107843
     7  O   -0.624847
     8  H    0.446804
     9  C   -0.215847
    10  O   -0.562932
    11  H    0.349175
    12  C    0.145867
    13  O   -0.285328
    14  C    0.244322
    15  O   -0.246439
    16  C    0.073821
    17  C    0.154563
    18  O   -0.534091
    19  H    0.366080
    20  C    0.149053
    21  O   -0.565895
    22  H    0.338847
    23  C   -0.312133
    24  O   -0.555080
    25  H    0.354707
    26  C    0.036817
    27  O   -0.194589
    28  C    0.004249
    29  O   -0.520845
    30  H    0.324717
    31  H    0.135199
    32  H    0.136395
    33  H    0.132801
    34  H    0.129312
    35  H    0.117538
    36  H    0.144538
    37  H    0.155542
    38  H    0.334929
    39  H    0.151426
    40  H    0.143375
    41  H    0.118143
    42  H    0.124536
    43  H    0.121755
    44  H    0.124249
    45  H    0.129764
 Sum of Mulliken atomic charges =   0.00000

 Dipole moment (field-independent basis, Debye):
    X=             -2.8849    Y=             -0.5889    Z=              2.9294  Tot=              4.1535
 Quadrupole moment (field-independent basis, Debye-Ang):
   XX=           -109.5768   YY=           -136.5434   ZZ=           -140.2122
   XY=            -17.7309   XZ=             -1.0916   YZ=             -1.0896

  Exact polarizability: 234.641  -0.431 198.227  -0.072  -0.317 143.000
 Approx polarizability: 274.981  -2.554 257.712   1.141   0.048 239.381

 ******    7 imaginary frequencies (negative Signs) ******

                     1                      2                      3
                     A                      A                      A
 Frequencies --  -323.8351              -277.4218              -275.7773
 Red. masses --     1.7146                 1.2836                 1.1709
 Frc consts  --     0.1059                 0.0582                 0.0525
 IR Inten    --     1.3223                58.4107               119.1593
 Raman Activ --     0.0577                 0.9049                 0.7599

                     4                      5                      6
                     A                      A                      A
 Frequencies --  -244.4416               -81.3054               -49.2936
 Red. masses --     1.5935                 6.2927                 6.8684
 Frc consts  --     0.0561                 0.0245                 0.0098
 IR Inten    --    27.2277                 0.2371                 2.3312
 Raman Activ --     0.5046                 0.0290                 0.0150

                     7                      8                      9
                     A                      A                      A
 Frequencies --   -39.2229                37.4666                43.7164
 Red. masses --     6.4570                 6.7917                 6.4045
 Frc consts  --     0.0059                 0.0056                 0.0072
 IR Inten    --     0.4478                 1.8468                 2.1371
 Raman Activ --     0.0470                 0.0364                 0.0965

                    10                     11                     12
                     A                      A                      A
 Frequencies --    71.2988                88.9663               118.1818
 Red. masses --     6.8063                 6.8316                 5.7318
 Frc consts  --     0.0204                 0.0319                 0.0472
 IR Inten    --     0.6801                 0.3199                 0.6921
 Raman Activ --     0.1074                 0.0322                 0.1406

                    13                     14                     15
                     A                      A                      A
 Frequencies --   165.9807               184.0122               196.4862
 Red. masses --     6.2728                 7.7088                 6.1375
 Frc consts  --     0.1018                 0.1538                 0.1396
 IR Inten    --     1.7760                 0.6555                 2.6081
 Raman Activ --     0.5552                 0.9461                 1.3105

                    16                     17                     18
                     A                      A                      A
 Frequencies --   214.0048               228.6547               266.1503
 Red. masses --     6.4647                 6.1974                 5.0511
 Frc consts  --     0.1744                 0.1909                 0.2108
 IR Inten    --     0.8031                 1.8587                 6.7729
 Raman Activ --     1.0559                 0.4248                 0.3106

                    19                     20                     21
                     A                      A                      A
 Frequencies --   267.1841               276.7051               298.6500
 Red. masses --     4.5160                 4.9902                 5.6367
 Frc consts  --     0.1899                 0.2251                 0.2962
 IR Inten    --    21.4493                 0.6296                 3.6575
 Raman Activ --     0.2701                 0.2412                 0.2197

                    22                     23                     24
                     A                      A                      A
 Frequencies --   305.2642               323.7529               331.2323
 Red. masses --     5.4607                 5.9912                 6.1958
 Frc consts  --     0.2998                 0.3700                 0.4005
 IR Inten    --     5.6946                 3.7941                 2.2290
 Raman Activ --     0.4534                 2.0452                 3.6401

                    25                     26                     27
                     A                      A                      A
 Frequencies --   343.4653               370.1717               383.2916
 Red. masses --     6.0705                 4.8046                 6.3577
 Frc consts  --     0.4219                 0.3879                 0.5503
 IR Inten    --    16.4149                 3.5618                 3.9471
 Raman Activ --     3.9407                 0.2365                 2.4121

                    28                     29                     30
                     A                      A                      A
 Frequencies --   409.1892               426.4229               434.8405
 Red. masses --     6.5531                 6.3809                 3.6762
 Frc consts  --     0.6465                 0.6836                 0.4095
 IR Inten    --     3.2345                 0.8665                17.9203
 Raman Activ --     4.1517                 1.2631                 3.5493

                    31                     32                     33
                     A                      A                      A
 Frequencies --   452.4998               476.0225               501.6634
 Red. masses --     4.9690                 4.1993                 5.2344
 Frc consts  --     0.5995                 0.5606                 0.7761
 IR Inten    --     7.6103                 4.5903                 7.6472
 Raman Activ --     1.3815                 3.4416                 0.6571

                    34                     35                     36
                     A                      A                      A
 Frequencies --   514.9073               529.1180               565.3799
 Red. masses --     3.1758                 3.1010                 3.7007
 Frc consts  --     0.4961                 0.5115                 0.6970
 IR Inten    --    11.4371                29.6116                 2.5381
 Raman Activ --     6.2554                 0.4005                 1.7585

                    37                     38                     39
                     A                      A                      A
 Frequencies --   596.4567               599.9464               618.8433
 Red. masses --     5.2049                 2.8777                 2.6162
 Frc consts  --     1.0910                 0.6103                 0.5903
 IR Inten    --    11.7091                30.6335                28.8490
 Raman Activ --     0.6427                 0.1737                 0.9953

                    40                     41                     42
                     A                      A                      A
 Frequencies --   627.9060               648.5539               659.1652
 Red. masses --     1.3784                 2.9157                 1.2130
 Frc consts  --     0.3202                 0.7226                 0.3105
 IR Inten    --    71.9775                82.0687                61.6796
 Raman Activ --     1.7543                 1.1197                 2.2438

                    43                     44                     45
                     A                      A                      A
 Frequencies --   710.7447               724.7759               742.3480
 Red. masses --     4.9864                 1.0907                 1.1120
 Frc consts  --     1.4841                 0.3376                 0.3610
 IR Inten    --    16.1582                85.3963               122.7027
 Raman Activ --     0.9960                 1.5161                 1.5491

                    46                     47                     48
                     A                      A                      A
 Frequencies --   814.5970               850.9115               863.3843
 Red. masses --     1.0698                 1.7133                 1.1593
 Frc consts  --     0.4183                 0.7309                 0.5092
 IR Inten    --    46.6309                 7.2699                65.5314
 Raman Activ --     0.3921                 1.5400                 2.1717

                    49                     50                     51
                     A                      A                      A
 Frequencies --   876.4351               936.7097               958.1269
 Red. masses --     1.6332                 6.3309                 5.9019
 Frc consts  --     0.7392                 3.2729                 3.1922
 IR Inten    --    34.4685                94.0709                43.2687
 Raman Activ --     1.0221                 3.6474                 1.0125

                    52                     53                     54
                     A                      A                      A
 Frequencies --   969.7038               974.9442               986.8261
 Red. masses --     5.4421                 6.6299                 4.1920
 Frc consts  --     3.0151                 3.7129                 2.4052
 IR Inten    --   213.7298                 4.2305                20.2692
 Raman Activ --     4.5819                 2.6754                 0.8788

                    55                     56                     57
                     A                      A                      A
 Frequencies --  1003.2152              1007.0391              1019.4455
 Red. masses --     6.9671                 7.1072                 5.4745
 Frc consts  --     4.1314                 4.2466                 3.3521
 IR Inten    --   417.6105                46.7632               103.2058
 Raman Activ --     1.7274                 1.1378                 3.0389

                    58                     59                     60
                     A                      A                      A
 Frequencies --  1034.6701              1050.4700              1059.0754
 Red. masses --     5.5625                 5.2399                 4.5300
 Frc consts  --     3.5085                 3.4067                 2.9937
 IR Inten    --   306.4326                46.9078               137.1861
 Raman Activ --     2.6992                12.2453                 9.1028

                    61                     62                     63
                     A                      A                      A
 Frequencies --  1064.9040              1070.3717              1076.8191
 Red. masses --     3.3591                 4.3644                 3.5077
 Frc consts  --     2.2443                 2.9461                 2.3964
 IR Inten    --    40.8370                30.9910                10.4564
 Raman Activ --     0.4202                 1.9729                21.2051

                    64                     65                     66
                     A                      A                      A
 Frequencies --  1083.9547              1096.2681              1108.6379
 Red. masses --     2.6724                 2.3148                 3.0214
 Frc consts  --     1.8500                 1.6390                 2.1879
 IR Inten    --    38.5075                39.6511                13.6386
 Raman Activ --     5.7705                 3.0470                18.0417

                    67                     68                     69
                     A                      A                      A
 Frequencies --  1111.1123              1112.4500              1127.1769
 Red. masses --     2.9338                 2.4997                 2.9537
 Frc consts  --     2.1340                 1.8226                 2.2111
 IR Inten    --    11.9074                93.8187                39.4737
 Raman Activ --     1.8064                 7.3860                 5.6631

                    70                     71                     72
                     A                      A                      A
 Frequencies --  1138.6007              1143.6345              1147.7072
 Red. masses --     1.8628                 1.6875                 1.9799
 Frc consts  --     1.4229                 1.3004                 1.5366
 IR Inten    --    31.8582                14.2958                14.0333
 Raman Activ --     4.9263                 1.4278                 2.9575

                    73                     74                     75
                     A                      A                      A
 Frequencies --  1163.9778              1178.6640              1185.5378
 Red. masses --     2.4329                 1.6401                 1.3805
 Frc consts  --     1.9420                 1.3425                 1.1432
 IR Inten    --    50.4502                 3.6834                21.3302
 Raman Activ --     2.5871                 1.6261                 0.3509

                    76                     77                     78
                     A                      A                      A
 Frequencies --  1190.7898              1208.8080              1226.6867
 Red. masses --     1.6883                 1.4920                 1.3206
 Frc consts  --     1.4105                 1.2845                 1.1708
 IR Inten    --    30.6971                 7.0491                 3.7174
 Raman Activ --     2.2485                 3.1028                 0.5674

                    79                     80                     81
                     A                      A                      A
 Frequencies --  1228.7889              1243.7622              1250.5718
 Red. masses --     1.2818                 1.3181                 1.1526
 Frc consts  --     1.1403                 1.2013                 1.0621
 IR Inten    --    22.1798                 4.8505                24.9919
 Raman Activ --     1.2522                 1.7301                 4.0893

                    82                     83                     84
                     A                      A                      A
 Frequencies --  1254.9723              1266.5399              1272.3978
 Red. masses --     1.2299                 1.2455                 1.2528
 Frc consts  --     1.1413                 1.1772                 1.1950
 IR Inten    --    16.2245                 2.4547                76.7559
 Raman Activ --     2.6819                 0.6261                 7.3481

                    85                     86                     87
                     A                      A                      A
 Frequencies --  1287.1832              1294.5315              1302.2972
 Red. masses --     1.2426                 1.2610                 1.1912
 Frc consts  --     1.2130                 1.2451                 1.1903
 IR Inten    --    10.8249                27.0929                42.8022
 Raman Activ --     2.1515                 3.2446                10.1975

                    88                     89                     90
                     A                      A                      A
 Frequencies --  1308.8129              1315.8362              1320.3570
 Red. masses --     1.2624                 1.2628                 1.3088
 Frc consts  --     1.2741                 1.2882                 1.3443
 IR Inten    --    23.7495                15.2218                 1.8262
 Raman Activ --     3.5027                 3.0847                 2.7593

                    91                     92                     93
                     A                      A                      A
 Frequencies --  1326.9626              1331.9772              1340.6118
 Red. masses --     1.4424                 1.2410                 1.2694
 Frc consts  --     1.4964                 1.2972                 1.3442
 IR Inten    --    22.4465                 7.0211                27.1400
 Raman Activ --     3.7793                 9.0665                 1.6517

                    94                     95                     96
                     A                      A                      A
 Frequencies --  1363.8664              1369.0662              1370.8228
 Red. masses --     1.3381                 1.4434                 1.2993
 Frc consts  --     1.4665                 1.5940                 1.4385
 IR Inten    --     3.1378                 1.0407                 6.6729
 Raman Activ --     4.4589                 4.9592                 8.9395

                    97                     98                     99
                     A                      A                      A
 Frequencies --  1377.0362              1380.1288              1389.6470
 Red. masses --     1.5359                 1.2327                 1.6072
 Frc consts  --     1.7159                 1.3834                 1.8286
 IR Inten    --     8.1152                45.4887                39.4458
 Raman Activ --     5.9465                 2.1886                 1.0669

                   100                    101                    102
                     A                      A                      A
 Frequencies --  1398.7423              1416.0653              1423.6512
 Red. masses --     1.6715                 1.4264                 1.3934
 Frc consts  --     1.9268                 1.6852                 1.6639
 IR Inten    --     3.3772                12.2407                 9.6097
 Raman Activ --     5.5491                 0.6218                 1.7063

                   103                    104                    105
                     A                      A                      A
 Frequencies --  1444.3482              1472.8035              1474.0841
 Red. masses --     1.5019                 1.0852                 1.0779
 Frc consts  --     1.8460                 1.3869                 1.3800
 IR Inten    --    59.2546                 2.7916                 1.6445
 Raman Activ --     1.8731                 3.9897                 4.7956

                   106                    107                    108
                     A                      A                      A
 Frequencies --  1509.8278              1544.2103              3222.2738
 Red. masses --     1.3214                 1.2381                 1.0712
 Frc consts  --     1.7748                 1.7395                 6.5529
 IR Inten    --    15.4742                40.8179              1220.5088
 Raman Activ --     1.1884                 0.5956               182.6581

                   109                    110                    111
                     A                      A                      A
 Frequencies --  3259.1480              3260.0015              3267.5350
 Red. masses --     1.0608                 1.0570                 1.0833
 Frc consts  --     6.6387                 6.6184                 6.8148
 IR Inten    --     2.9826                33.3696                 3.7905
 Raman Activ --   157.6738                74.6152                49.0731

                   112                    113                    114
                     A                      A                      A
 Frequencies --  3270.0396              3278.4759              3281.3984
 Red. masses --     1.0810                 1.0838                 1.0836
 Frc consts  --     6.8107                 6.8633                 6.8747
 IR Inten    --    20.7801                 2.9635                 8.1068
 Raman Activ --    77.2882                 4.4145                89.4016

                   115                    116                    117
                     A                      A                      A
 Frequencies --  3284.5729              3288.6638              3290.2200
 Red. masses --     1.0838                 1.0853                 1.0863
 Frc consts  --     6.8889                 6.9160                 6.9287
 IR Inten    --    15.1217                 1.0005                14.1445
 Raman Activ --   134.5143                80.8759                 8.2503

                   118                    119                    120
                     A                      A                      A
 Frequencies --  3297.0685              3301.6259              3304.7737
 Red. masses --     1.0864                 1.0877                 1.0960
 Frc consts  --     6.9580                 6.9858                 7.0525
 IR Inten    --     6.9622                45.6296                12.9679
 Raman Activ --    50.4157                11.4621                26.3788

                   121                    122                    123
                     A                      A                      A
 Frequencies --  3309.9222              3317.8587              3319.5421
 Red. masses --     1.0941                 1.0927                 1.0801
 Frc consts  --     7.0624                 7.0873                 7.0122
 IR Inten    --   104.2138                95.0549               309.9121
 Raman Activ --    38.0886                31.3409               149.6538

                   124                    125                    126
                     A                      A                      A
 Frequencies --  3364.9862              3365.8805              3371.6681
 Red. masses --     1.0659                 1.0686                 1.0660
 Frc consts  --     7.1113                 7.1331                 7.1400
 IR Inten    --    20.3895                60.1424                74.5892
 Raman Activ --   104.4060               236.6305               117.8105

                   127                    128                    129
                     A                      A                      A
 Frequencies --  3372.9330              3889.2807              3889.4682
 Red. masses --     1.0673                 1.0675                 1.0675
 Frc consts  --     7.1539                 9.5134                 9.5151
 IR Inten    --    36.1493                81.4563                43.6628
 Raman Activ --   194.6391                87.6557               139.0105

 - Thermochemistry -
 -------------------
 Temperature   298.150 Kelvin.  Pressure   1.00000 Atm.
 Atom     1 has atomic number  8 and mass  15.99491

 Molecular mass:   342.11621 amu.
 Principal axes and moments of inertia in atomic units:
                           1         2         3
     Eigenvalues --  4427.66762********************
           X            0.99996  -0.00870  -0.00072
           Y            0.00870   0.99996  -0.00168
           Z            0.00073   0.00167   1.00000
 This molecule is an asymmetric top.
 Rotational symmetry number  1.
 Warning -- assumption of classical behavior for rotation
           may cause significant error
 Rotational temperatures (Kelvin)      0.01956     0.00704     0.00531
 Rotational constants (GHZ):           0.40761     0.14673     0.11060
    7 imaginary frequencies ignored.
 Zero-point vibrational energy     973056.3 (Joules/Mol)
                                  232.56604 (Kcal/Mol)
 Warning -- explicit consideration of  32 degrees of freedom as
           vibrations may cause significant error
 Vibrational temperatures:     53.91    62.90   102.58   128.00   170.04
          (Kelvin)            238.81   264.75   282.70   307.90   328.98
                              382.93   384.42   398.12   429.69   439.21
                              465.81   476.57   494.17   532.59   551.47
                              588.73   613.53   625.64   651.05   684.89
                              721.78   740.84   761.28   813.45   858.17
                              863.19   890.38   903.42   933.12   948.39
                             1022.60  1042.79  1068.07  1172.02  1224.27
                             1242.22  1260.99  1347.71  1378.53  1395.19
                             1402.73  1419.82  1443.40  1448.90  1466.75
                             1488.66  1511.39  1523.77  1532.16  1540.02
                             1549.30  1559.57  1577.28  1595.08  1598.64
                             1600.57  1621.75  1638.19  1645.43  1651.29
                             1674.70  1695.83  1705.72  1713.28  1739.20
                             1764.93  1767.95  1789.49  1799.29  1805.62
                             1822.27  1830.69  1851.97  1862.54  1873.71
                             1883.09  1893.19  1899.70  1909.20  1916.42
                             1928.84  1962.30  1969.78  1972.31  1981.25
                             1985.70  1999.39  2012.48  2037.40  2048.31
                             2078.09  2119.03  2120.88  2172.30  2221.77
                             4636.13  4689.18  4690.41  4701.25  4704.85
                             4716.99  4721.19  4725.76  4731.65  4733.89
                             4743.74  4750.30  4754.83  4762.23  4773.65
                             4776.07  4841.46  4842.75  4851.07  4852.89
                             5595.80  5596.07

 Zero-point correction=                           0.370618 (Hartree/Particle)
 Thermal correction to Energy=                    0.388968
 Thermal correction to Enthalpy=                  0.389913
 Thermal correction to Gibbs Free Energy=         0.324629
 Sum of electronic and zero-point Energies=          -1297.605042
 Sum of electronic and thermal Energies=             -1297.586691
 Sum of electronic and thermal Enthalpies=           -1297.585747
 Sum of electronic and thermal Free Energies=        -1297.651031

                     E (Thermal)             CV                S
                      KCal/Mol        Cal/Mol-Kelvin    Cal/Mol-Kelvin
 Total                  244.081             75.985            137.402
 Electronic               0.000              0.000              0.000
 Translational            0.889              2.981             43.384
 Rotational               0.889              2.981             35.140
 Vibrational            242.304             70.023             58.878
 Vibration     1          0.594              1.982              5.389
 Vibration     2          0.595              1.980              5.083
 Vibration     3          0.598              1.968              4.117
 Vibration     4          0.602              1.957              3.683
 Vibration     5          0.608              1.934              3.130
 Vibration     6          0.624              1.884              2.481
 Vibration     7          0.631              1.862              2.287
 Vibration     8          0.636              1.845              2.166
 Vibration     9          0.644              1.820              2.009
 Vibration    10          0.651              1.797              1.889
 Vibration    11          0.672              1.735              1.621
 Vibration    12          0.672              1.733              1.614
 Vibration    13          0.678              1.717              1.554
 Vibration    14          0.692              1.676              1.424
 Vibration    15          0.696              1.664              1.388
 Vibration    16          0.708              1.628              1.291
 Vibration    17          0.714              1.613              1.254
 Vibration    18          0.722              1.589              1.196
 Vibration    19          0.742              1.533              1.079
 Vibration    20          0.752              1.506              1.026
 Vibration    21          0.774              1.450              0.929
 Vibration    22          0.788              1.413              0.870
 Vibration    23          0.795              1.394              0.843
 Vibration    24          0.811              1.355              0.788
 Vibration    25          0.833              1.303              0.721
 Vibration    26          0.857              1.246              0.654
 Vibration    27          0.870              1.217              0.622
 Vibration    28          0.884              1.186              0.589
 Vibration    29          0.921              1.106              0.513
 Vibration    30          0.954              1.039              0.456
 Vibration    31          0.958              1.032              0.450
 Vibration    32          0.979              0.992              0.418

 Normal termination of Gaussian 09 at Tue Mar 29 19:12:48 2016.
