 Gaussian 09, Revision B.01,
 Gaussian 09:  EM64L-G09RevB.01 12-Aug-2010

 --------------------------------------------------
 # freq=raman b3lyp/6-31+g(2df,p) geom=connectivity
 --------------------------------------------------

 ------------
 350 8000.com
 ------------
 Symbolic Z-matrix:
 Charge =  0 Multiplicity = 1

                         Standard orientation:
 ---------------------------------------------------------------------
 Center     Atomic      Atomic             Coordinates (Angstroms)
 Number     Number       Type             X           Y           Z
 ---------------------------------------------------------------------
      1          8           0        5.020064   -0.390647   -0.269180
      2          6           0        3.730703   -0.103214    0.291014
      3          6           0        3.217452    1.261554   -0.135868
      4          8           0        4.209629    2.294002   -0.048261
      5          1           0        5.107934    1.872831   -0.165636
      6          6           0        1.805655    1.640214    0.281228
      7          8           0        1.224787    2.702597   -0.489413
      8          1           0        0.288047    2.925363   -0.218236
      9          6           0        3.021131   -2.631020    0.133887
     10          8           0        4.206787   -3.239934   -0.397521
     11          1           0        4.130172   -4.220888   -0.220250
     12          6           0        2.780389   -1.172819   -0.222317
     13          8           0        1.478252   -0.788788    0.241641
     14          6           0        0.905718    0.479317   -0.110489
     15          8           0       -0.296380    0.516067    0.672942
     16          6           0       -1.486696    0.185679   -0.057855
     17          6           0       -2.044220   -1.122291    0.479850
     18          8           0       -1.183739   -2.166733    0.002549
     19          1           0       -0.223208   -1.893148    0.065851
     20          6           0       -3.376136   -1.533264   -0.125290
     21          8           0       -3.850090   -2.733439    0.503702
     22          1           0       -4.680257   -3.125280    0.107855
     23          6           0       -2.204598    2.635787   -0.167921
     24          8           0       -1.122395    3.324322    0.475258
     25          1           0       -1.340841    4.300263    0.450566
     26          6           0       -2.576306    1.210440    0.208821
     27          8           0       -3.855556    0.891501   -0.356194
     28          6           0       -4.370924   -0.393416    0.023757
     29          8           0       -5.491829   -0.593548   -0.848590
     30          1           0       -6.265387   -0.822575   -0.328250
     31          1           0        5.628860   -0.627926    0.434145
     32          1           0        2.179366   -3.196532   -0.207475
     33          1           0        3.061825   -2.706927    1.200415
     34          1           0        2.774846   -1.105621   -1.290190
     35          1           0        3.783194   -0.150575    1.358676
     36          1           0        3.109750    1.140511   -1.193530
     37          1           0        1.745586    1.839983    1.330696
     38          1           0        0.676076    0.513039   -1.155011
     39          1           0       -3.080783    3.232765   -0.023639
     40          1           0       -1.990507    2.633204   -1.216280
     41          1           0       -2.716893    1.214240    1.269538
     42          1           0       -1.283113    0.110134   -1.105589
     43          1           0       -2.087967   -1.117911    1.548946
     44          1           0       -3.232777   -1.727585   -1.167685
     45          1           0       -4.713154   -0.352366    1.036719
 ---------------------------------------------------------------------

 SCF Done:  E(RB3LYP) =  -1298.00868079     A.U. after   13 cycles

 The electronic state is 1-A.
 Alpha  occ. eigenvalues --  -19.19711 -19.18206 -19.18079 -19.17513 -19.17166
 Alpha  occ. eigenvalues --  -19.16981 -19.16419 -19.16286 -19.14638 -19.13608
 Alpha  occ. eigenvalues --  -19.12669 -10.30165 -10.30038 -10.25927 -10.25516
 Alpha  occ. eigenvalues --  -10.25487 -10.25303 -10.25200 -10.24633 -10.24326
 Alpha  occ. eigenvalues --  -10.24309 -10.24130 -10.23923  -1.09473  -1.08603
 Alpha  occ. eigenvalues --   -1.06345  -1.05261  -1.03582  -1.03225  -1.02789
 Alpha  occ. eigenvalues --   -1.02387  -1.01359  -1.00347  -0.99678  -0.82078
 Alpha  occ. eigenvalues --   -0.79831  -0.79118  -0.78231  -0.72068  -0.70161
 Alpha  occ. eigenvalues --   -0.67152  -0.64836  -0.63215  -0.62376  -0.61201
 Alpha  occ. eigenvalues --   -0.59775  -0.56441  -0.56050  -0.55178  -0.54773
 Alpha  occ. eigenvalues --   -0.53732  -0.53347  -0.52902  -0.51841  -0.50846
 Alpha  occ. eigenvalues --   -0.50645  -0.49908  -0.49661  -0.48582  -0.46409
 Alpha  occ. eigenvalues --   -0.46050  -0.45260  -0.44296  -0.43883  -0.43069
 Alpha  occ. eigenvalues --   -0.42532  -0.41773  -0.41096  -0.40146  -0.38919
 Alpha  occ. eigenvalues --   -0.37776  -0.37521  -0.37421  -0.36459  -0.35999
 Alpha  occ. eigenvalues --   -0.35552  -0.34532  -0.34291  -0.33980  -0.33515
 Alpha  occ. eigenvalues --   -0.32428  -0.31418  -0.30523  -0.30283  -0.29750
 Alpha  occ. eigenvalues --   -0.29068  -0.28892  -0.28321  -0.26785  -0.26344
 Alpha  occ. eigenvalues --   -0.26041
 Alpha virt. eigenvalues --   -0.02268  -0.01799  -0.01748  -0.00197   0.00328
 Alpha virt. eigenvalues --    0.00958   0.01785   0.02390   0.02860   0.03642
 Alpha virt. eigenvalues --    0.03951   0.04177   0.05027   0.05264   0.05639

 Mulliken atomic charges:
              1
     1  O   -0.441928
     2  C   -0.079248
     3  C    0.086510
     4  O   -0.492376
     5  H    0.355417
     6  C   -0.050354
     7  O   -0.507974
     8  H    0.458456
     9  C   -0.296077
    10  O   -0.434048
    11  H    0.342922
    12  C   -0.118141
    13  O   -0.072050
    14  C   -0.018650
    15  O    0.051075
    16  C   -0.027661
    17  C    0.123260
    18  O   -0.485159
    19  H    0.384900
    20  C    0.011305
    21  O   -0.475849
    22  H    0.347422
    23  C   -0.420733
    24  O   -0.490933
    25  H    0.373111
    26  C   -0.155263
    27  O   -0.062356
    28  C   -0.045235
    29  O   -0.463840
    30  H    0.345626
    31  H    0.350878
    32  H    0.151727
    33  H    0.145972
    34  H    0.119602
    35  H    0.122536
    36  H    0.110007
    37  H    0.136674
    38  H    0.133636
    39  H    0.151096
    40  H    0.165041
    41  H    0.125596
    42  H    0.128279
    43  H    0.142175
    44  H    0.145498
    45  H    0.129157
 Sum of Mulliken atomic charges =   0.00000

 Dipole moment (field-independent basis, Debye):
    X=             -2.6731    Y=             -0.7349    Z=              2.4411  Tot=              3.6938
 Quadrupole moment (field-independent basis, Debye-Ang):
   XX=           -119.5563   YY=           -131.8513   ZZ=           -140.9379
   XY=            -15.8256   XZ=              3.6697   YZ=              2.0922

  Exact polarizability: 234.327   1.357 198.770   0.801  -0.385 144.011
 Approx polarizability: 274.711   0.505 258.081   0.350   0.167 239.831

 ******    6 imaginary frequencies (negative Signs) ******

                     1                      2                      3
                     A                      A                      A
 Frequencies --  -290.8314              -270.3853              -241.4275
 Red. masses --     1.6693                 1.7699                 1.1934
 Frc consts  --     0.0832                 0.0762                 0.0410
 IR Inten    --     2.7639                 8.0183               111.5354
 Raman Activ --     0.0311                 0.0775                 0.9437

                     4                      5                      6
                     A                      A                      A
 Frequencies --  -179.8831               -72.2581               -67.1462
 Red. masses --     1.2472                 5.9713                 6.7432
 Frc consts  --     0.0238                 0.0184                 0.0179
 IR Inten    --    89.8898                 2.9403                 1.7995
 Raman Activ --     0.8587                 0.0632                 0.0297

                     7                      8                      9
                     A                      A                      A
 Frequencies --     5.1142                28.2745                59.2404
 Red. masses --     6.3373                 6.6297                 6.3094
 Frc consts  --     0.0001                 0.0031                 0.0130
 IR Inten    --     0.3410                 1.2417                 1.0719
 Raman Activ --     0.0344                 0.0328                 0.0777

                    10                     11                     12
                     A                      A                      A
 Frequencies --    73.1371                87.7810                99.1935
 Red. masses --     5.7643                 6.3241                 5.9418
 Frc consts  --     0.0182                 0.0287                 0.0344
 IR Inten    --     6.0319                 1.6465                 1.8530
 Raman Activ --     0.2120                 0.1393                 0.2296

                    13                     14                     15
                     A                      A                      A
 Frequencies --   150.1526               165.9739               178.4289
 Red. masses --     6.2016                 5.8324                 8.0866
 Frc consts  --     0.0824                 0.0947                 0.1517
 IR Inten    --     2.5004                 5.0903                 1.4502
 Raman Activ --     0.4084                 0.2457                 0.7367

                    16                     17                     18
                     A                      A                      A
 Frequencies --   212.3398               223.6375               255.1825
 Red. masses --     7.0677                 5.1349                 4.3377
 Frc consts  --     0.1878                 0.1513                 0.1664
 IR Inten    --     0.5989                 4.0907                16.8565
 Raman Activ --     2.3859                 0.1848                 0.4976

                    19                     20                     21
                     A                      A                      A
 Frequencies --   284.2610               291.1006               295.7257
 Red. masses --     4.9917                 5.1493                 4.7931
 Frc consts  --     0.2376                 0.2571                 0.2470
 IR Inten    --     1.7943                 1.7315                 2.8143
 Raman Activ --     0.2749                 0.0926                 0.2319

                    22                     23                     24
                     A                      A                      A
 Frequencies --   303.7043               313.0995               322.3709
 Red. masses --     6.7683                 5.5863                 5.7559
 Frc consts  --     0.3678                 0.3227                 0.3524
 IR Inten    --    10.0782                 0.3399                 0.4958
 Raman Activ --     1.1412                 2.8337                 3.0625

                    25                     26                     27
                     A                      A                      A
 Frequencies --   346.2446               351.9337               381.2488
 Red. masses --     6.6076                 5.0491                 5.5640
 Frc consts  --     0.4667                 0.3685                 0.4765
 IR Inten    --    16.6604                 1.6286                 1.7584
 Raman Activ --     4.3614                 0.5353                 0.2698

                    28                     29                     30
                     A                      A                      A
 Frequencies --   386.4993               412.0159               438.2654
 Red. masses --     4.4882                 6.7534                 4.9107
 Frc consts  --     0.3950                 0.6755                 0.5557
 IR Inten    --    24.5231                 1.4307                 1.1163
 Raman Activ --     2.7694                 5.1918                 2.9583

                    31                     32                     33
                     A                      A                      A
 Frequencies --   440.6043               469.9925               482.6141
 Red. masses --     5.5096                 4.5893                 3.9417
 Frc consts  --     0.6302                 0.5973                 0.5409
 IR Inten    --     1.6432                 5.3766                14.1796
 Raman Activ --     1.3378                 1.8040                 4.8785

                    34                     35                     36
                     A                      A                      A
 Frequencies --   518.0203               538.2377               569.4599
 Red. masses --     4.5459                 3.0523                 4.2289
 Frc consts  --     0.7187                 0.5210                 0.8080
 IR Inten    --    11.2400                 1.8037                18.3825
 Raman Activ --     1.1896                 2.6177                 1.8538

                    37                     38                     39
                     A                      A                      A
 Frequencies --   585.8822               602.2044               618.5653
 Red. masses --     3.5604                 4.1781                 5.9287
 Frc consts  --     0.7201                 0.8927                 1.3365
 IR Inten    --    12.4977                11.7802                31.3402
 Raman Activ --     0.1589                 0.8895                 0.8333

                    40                     41                     42
                     A                      A                      A
 Frequencies --   634.0687               677.7694               683.6855
 Red. masses --     3.8849                 5.5875                 1.0552
 Frc consts  --     0.9202                 1.5123                 0.2906
 IR Inten    --    26.8494                 8.6548                87.6903
 Raman Activ --     0.4803                 0.5861                 2.2078

                    43                     44                     45
                     A                      A                      A
 Frequencies --   720.6351               729.7352               742.8971
 Red. masses --     1.0699                 1.0564                 1.0843
 Frc consts  --     0.3274                 0.3314                 0.3526
 IR Inten    --    82.3802               102.2505               128.3900
 Raman Activ --     1.7772                 1.6195                 1.5695

                    46                     47                     48
                     A                      A                      A
 Frequencies --   826.7895               840.5969               847.2047
 Red. masses --     1.1199                 1.5306                 1.6269
 Frc consts  --     0.4510                 0.6372                 0.6880
 IR Inten    --    61.2109                13.9023                 1.4862
 Raman Activ --     0.9118                 0.6759                 0.5157

                    49                     50                     51
                     A                      A                      A
 Frequencies --   895.0232               908.9284               954.9260
 Red. masses --     1.2499                 5.6355                 4.4084
 Frc consts  --     0.5899                 2.7431                 2.3685
 IR Inten    --    71.5287               117.9927               108.3131
 Raman Activ --     1.2654                 2.3439                 0.6140

                    52                     53                     54
                     A                      A                      A
 Frequencies --   975.1479               980.3683               991.4153
 Red. masses --     4.3719                 6.9849                 5.9738
 Frc consts  --     2.4494                 3.9554                 3.4595
 IR Inten    --    34.8292                24.8506               108.8367
 Raman Activ --     1.1617                 3.0192                 2.7852

                    55                     56                     57
                     A                      A                      A
 Frequencies --   999.0889              1001.7595              1021.2226
 Red. masses --     6.9775                 5.4374                 5.9627
 Frc consts  --     4.1035                 3.2149                 3.6638
 IR Inten    --   185.3184               236.8794               103.8414
 Raman Activ --     2.1068                 4.6913                 2.1058

                    58                     59                     60
                     A                      A                      A
 Frequencies --  1036.8870              1049.0123              1052.5140
 Red. masses --     5.4776                 4.2150                 4.6834
 Frc consts  --     3.4698                 2.7328                 3.0568
 IR Inten    --   419.3073               134.0401                13.2319
 Raman Activ --     2.5939                 6.4867                 6.9469

                    61                     62                     63
                     A                      A                      A
 Frequencies --  1062.2552              1073.1739              1082.6125
 Red. masses --     4.8015                 4.2145                 4.7470
 Frc consts  --     3.1921                 2.8598                 3.2780
 IR Inten    --   133.2708                24.2680                40.5939
 Raman Activ --     5.3811                10.3689                 8.2691

                    64                     65                     66
                     A                      A                      A
 Frequencies --  1091.4633              1094.7193              1096.9771
 Red. masses --     2.4306                 2.6824                 2.6507
 Frc consts  --     1.7060                 1.8940                 1.8794
 IR Inten    --    42.0096                 5.1279                30.1051
 Raman Activ --     1.5117                 8.6626                 5.8050

                    67                     68                     69
                     A                      A                      A
 Frequencies --  1120.4427              1124.5956              1130.6556
 Red. masses --     2.1330                 2.4568                 2.7044
 Frc consts  --     1.5777                 1.8307                 2.0370
 IR Inten    --    25.7661                21.0902                66.1589
 Raman Activ --     0.5410                 4.7606                14.5206

                    70                     71                     72
                     A                      A                      A
 Frequencies --  1145.5206              1150.9912              1153.0617
 Red. masses --     2.6465                 2.0733                 1.7317
 Frc consts  --     2.0461                 1.6183                 1.3565
 IR Inten    --    13.4541                 2.5982                 9.9323
 Raman Activ --     3.1792                 3.9287                 2.5559

                    73                     74                     75
                     A                      A                      A
 Frequencies --  1161.2339              1177.5883              1179.8967
 Red. masses --     2.0371                 1.6111                 1.4291
 Frc consts  --     1.6184                 1.3163                 1.1722
 IR Inten    --     6.4343                10.5806                 8.3258
 Raman Activ --     4.1053                 2.3095                 1.2833

                    76                     77                     78
                     A                      A                      A
 Frequencies --  1194.6409              1197.9478              1219.4204
 Red. masses --     1.3326                 1.6006                 1.4860
 Frc consts  --     1.1205                 1.3534                 1.3019
 IR Inten    --     5.2697                 7.6573                 7.9104
 Raman Activ --     0.6782                 3.3069                 1.8092

                    79                     80                     81
                     A                      A                      A
 Frequencies --  1230.3118              1241.8115              1248.5580
 Red. masses --     1.3682                 1.1699                 1.1718
 Frc consts  --     1.2202                 1.0629                 1.0763
 IR Inten    --    24.9819                10.6992                14.1632
 Raman Activ --     1.3902                 1.3263                 0.4850

                    82                     83                     84
                     A                      A                      A
 Frequencies --  1266.5896              1267.7025              1272.1835
 Red. masses --     1.3264                 1.3842                 1.2625
 Frc consts  --     1.2537                 1.3107                 1.2038
 IR Inten    --    21.7882                12.3434                 3.8705
 Raman Activ --     2.2231                 2.2373                 7.5464

                    85                     86                     87
                     A                      A                      A
 Frequencies --  1280.0975              1289.4913              1297.1043
 Red. masses --     1.3371                 1.2289                 1.3059
 Frc consts  --     1.2910                 1.2040                 1.2945
 IR Inten    --    53.2298                13.6692                13.6929
 Raman Activ --     6.2867                 1.9247                 0.6967

                    88                     89                     90
                     A                      A                      A
 Frequencies --  1299.0185              1314.3010              1322.1652
 Red. masses --     1.2478                 1.4727                 1.3258
 Frc consts  --     1.2406                 1.4988                 1.3655
 IR Inten    --     2.2834                32.5351                 9.0276
 Raman Activ --     6.4990                 2.1547                 3.3592

                    91                     92                     93
                     A                      A                      A
 Frequencies --  1327.6885              1329.7142              1361.8890
 Red. masses --     1.1998                 1.1637                 1.1997
 Frc consts  --     1.2461                 1.2123                 1.3110
 IR Inten    --    65.8754                14.3080                36.0857
 Raman Activ --     6.6663                 4.5971                 1.1801

                    94                     95                     96
                     A                      A                      A
 Frequencies --  1363.3153              1368.9012              1370.1380
 Red. masses --     1.3171                 1.3822                 1.4479
 Frc consts  --     1.4423                 1.5260                 1.6015
 IR Inten    --     1.0179                 7.8332                 4.2507
 Raman Activ --     7.4624                 8.0387                 5.0378

                    97                     98                     99
                     A                      A                      A
 Frequencies --  1377.0920              1386.0236              1388.8104
 Red. masses --     1.6633                 1.5613                 1.1450
 Frc consts  --     1.8585                 1.7672                 1.3012
 IR Inten    --    22.6115                21.0468                18.0413
 Raman Activ --     6.2733                 1.2858                 1.0590

                   100                    101                    102
                     A                      A                      A
 Frequencies --  1396.3200              1427.2957              1444.7120
 Red. masses --     1.5490                 1.3241                 1.5013
 Frc consts  --     1.7794                 1.5893                 1.8463
 IR Inten    --     3.1407                23.4315                39.1386
 Raman Activ --     5.1953                 0.8164                 1.6145

                   103                    104                    105
                     A                      A                      A
 Frequencies --  1463.2098              1464.9092              1468.8126
 Red. masses --     1.0894                 1.0816                 1.3746
 Frc consts  --     1.3742                 1.3675                 1.7473
 IR Inten    --     5.3577                 5.0881                34.0086
 Raman Activ --     5.2567                 4.2038                 1.0782

                   106                    107                    108
                     A                      A                      A
 Frequencies --  1477.4856              1479.1372              3192.2735
 Red. masses --     1.2841                 1.3033                 1.0702
 Frc consts  --     1.6516                 1.6800                 6.4255
 IR Inten    --    10.1346                46.3683              1185.1928
 Raman Activ --     2.1066                 0.9658               182.7738

                   109                    110                    111
                     A                      A                      A
 Frequencies --  3241.8673              3253.5972              3254.5337
 Red. masses --     1.0792                 1.0573                 1.0706
 Frc consts  --     6.6822                 6.5942                 6.6814
 IR Inten    --    21.8384                31.8811                 5.1407
 Raman Activ --    53.3906               126.2463               128.3345

                   112                    113                    114
                     A                      A                      A
 Frequencies --  3261.4930              3268.1898              3274.5964
 Red. masses --     1.0693                 1.0811                 1.0845
 Frc consts  --     6.7019                 6.8036                 6.8517
 IR Inten    --    30.8156                21.1493                19.0512
 Raman Activ --    42.5628                86.3569                85.5414

                   115                    116                    117
                     A                      A                      A
 Frequencies --  3281.9256              3284.3338              3287.6163
 Red. masses --     1.0836                 1.0866                 1.0836
 Frc consts  --     6.8766                 6.9058                 6.9008
 IR Inten    --    44.8620                20.2649                52.4655
 Raman Activ --    32.1991                11.3779               197.3679

                   118                    119                    120
                     A                      A                      A
 Frequencies --  3291.3136              3294.3059              3298.4919
 Red. masses --     1.0818                 1.0766                 1.0864
 Frc consts  --     6.9042                 6.8841                 6.9644
 IR Inten    --    53.3866               281.9298                25.1663
 Raman Activ --    43.7367               109.5391                11.6106

                   121                    122                    123
                     A                      A                      A
 Frequencies --  3304.5502              3309.9080              3311.1228
 Red. masses --     1.0862                 1.1058                 1.1027
 Frc consts  --     6.9884                 7.1379                 7.1228
 IR Inten    --    64.4666                41.1033                61.6186
 Raman Activ --    33.9705                36.1228                29.7578

                   124                    125                    126
                     A                      A                      A
 Frequencies --  3360.4170              3360.5277              3360.9552
 Red. masses --     1.0679                 1.0669                 1.0673
 Frc consts  --     7.1053                 7.0989                 7.1032
 IR Inten    --    86.3331                44.5119                19.9736
 Raman Activ --   117.5045               119.1608               243.2381

                   127                    128                    129
                     A                      A                      A
 Frequencies --  3363.6415              3876.5042              3876.8310
 Red. masses --     1.0654                 1.0676                 1.0674
 Frc consts  --     7.1021                 9.4519                 9.4518
 IR Inten    --    53.2235                92.4639                55.4863
 Raman Activ --   110.3517                70.8519               137.3523

 - Thermochemistry -
 -------------------
 Temperature   298.150 Kelvin.  Pressure   1.00000 Atm.
 Atom     1 has atomic number  8 and mass  15.99491

 Molecular mass:   342.11621 amu.
 Principal axes and moments of inertia in atomic units:
                           1         2         3
     Eigenvalues --  4462.25493********************
           X            0.99997  -0.00759   0.00009
           Y            0.00759   0.99997  -0.00120
           Z           -0.00008   0.00120   1.00000
 This molecule is an asymmetric top.
 Rotational symmetry number  1.
 Warning -- assumption of classical behavior for rotation
           may cause significant error
 Rotational temperatures (Kelvin)      0.01941     0.00700     0.00529
 Rotational constants (GHZ):           0.40445     0.14584     0.11015
    6 imaginary frequencies ignored.
 Zero-point vibrational energy     971075.6 (Joules/Mol)
                                  232.09264 (Kcal/Mol)
 Warning -- explicit consideration of  33 degrees of freedom as
           vibrations may cause significant error
 Vibrational temperatures:      7.36    40.68    85.23   105.23   126.30
          (Kelvin)            142.72   216.04   238.80   256.72   305.51
                              321.76   367.15   408.99   418.83   425.48
                              436.96   450.48   463.82   498.17   506.35
                              548.53   556.09   592.80   630.57   633.93
                              676.21   694.37   745.31   774.40   819.32
                              842.95   866.44   889.98   912.28   975.16
                              983.67  1036.83  1049.92  1068.86  1189.56
                             1209.43  1218.94  1287.74  1307.74  1373.92
                             1403.02  1410.53  1426.42  1437.46  1441.31
                             1469.31  1491.85  1509.29  1514.33  1528.35
                             1544.06  1557.64  1570.37  1575.05  1578.30
                             1612.07  1618.04  1626.76  1648.15  1656.02
                             1659.00  1670.75  1694.28  1697.61  1718.82
                             1723.58  1754.47  1770.14  1786.69  1796.39
                             1822.34  1823.94  1830.39  1841.77  1855.29
                             1866.24  1869.00  1890.98  1902.30  1910.25
                             1913.16  1959.45  1961.50  1969.54  1971.32
                             1981.33  1994.18  1998.19  2008.99  2053.56
                             2078.62  2105.23  2107.67  2113.29  2125.77
                             2128.15  4592.96  4664.32  4681.19  4682.54
                             4692.56  4702.19  4711.41  4721.95  4725.42
                             4730.14  4735.46  4739.77  4745.79  4754.50
                             4762.21  4763.96  4834.88  4835.04  4835.66
                             4839.52  5577.42  5577.89

 Zero-point correction=                           0.369863 (Hartree/Particle)
 Thermal correction to Energy=                    0.389311
 Thermal correction to Enthalpy=                  0.390255
 Thermal correction to Gibbs Free Energy=         0.320009
 Sum of electronic and zero-point Energies=          -1297.638818
 Sum of electronic and thermal Energies=             -1297.619370
 Sum of electronic and thermal Enthalpies=           -1297.618426
 Sum of electronic and thermal Free Energies=        -1297.688671

                     E (Thermal)             CV                S
                      KCal/Mol        Cal/Mol-Kelvin    Cal/Mol-Kelvin
 Total                  244.296             78.114            147.845
 Electronic               0.000              0.000              0.000
 Translational            0.889              2.981             43.384
 Rotational               0.889              2.981             35.158
 Vibrational            242.519             72.153             69.303
 Vibration     1          0.593              1.987              9.343
 Vibration     2          0.593              1.984              5.947
 Vibration     3          0.597              1.974              4.482
 Vibration     4          0.599              1.967              4.067
 Vibration     5          0.601              1.958              3.709
 Vibration     6          0.604              1.950              3.470
 Vibration     7          0.618              1.902              2.670
 Vibration     8          0.624              1.884              2.481
 Vibration     9          0.629              1.869              2.345
 Vibration    10          0.643              1.822              2.023
 Vibration    11          0.649              1.805              1.929
 Vibration    12          0.666              1.754              1.695
 Vibration    13          0.683              1.703              1.508
 Vibration    14          0.687              1.690              1.468
 Vibration    15          0.690              1.682              1.441
 Vibration    16          0.695              1.667              1.396
 Vibration    17          0.701              1.649              1.346
 Vibration    18          0.707              1.631              1.298
 Vibration    19          0.724              1.583              1.183
 Vibration    20          0.728              1.571              1.158
 Vibration    21          0.751              1.510              1.034
 Vibration    22          0.755              1.499              1.014
 Vibration    23          0.776              1.444              0.920
 Vibration    24          0.798              1.387              0.832
 Vibration    25          0.801              1.382              0.825
 Vibration    26          0.827              1.317              0.738
 Vibration    27          0.839              1.289              0.703
 Vibration    28          0.873              1.210              0.615
 Vibration    29          0.893              1.165              0.569
 Vibration    30          0.926              1.097              0.505
 Vibration    31          0.943              1.062              0.475
 Vibration    32          0.961              1.027              0.446
 Vibration    33          0.978              0.993              0.419

 Normal termination of Gaussian 09 at Fri Feb 12 11:03:01 2016.
