 Gaussian 09, Revision B.01,
 Gaussian 09:  EM64L-G09RevB.01 12-Aug-2010

 ------------------------------------------------
 # freq=raman b3lyp/6-31+g(d,p) geom=connectivity
 ------------------------------------------------

 ------------
 300 8000.com
 ------------
 Symbolic Z-matrix:
 Charge =  0 Multiplicity = 1

                         Standard orientation:
 ---------------------------------------------------------------------
 Center     Atomic      Atomic             Coordinates (Angstroms)
 Number     Number       Type             X           Y           Z
 ---------------------------------------------------------------------
      1          8           0        4.970435   -0.402040   -0.375253
      2          6           0        3.682088   -0.094218    0.175408
      3          6           0        3.212482    1.239001   -0.384721
      4          8           0        4.109782    2.285123    0.014055
      5          1           0        5.002642    1.842746   -0.072949
      6          6           0        1.808421    1.569909    0.095035
      7          8           0        1.320208    2.729494   -0.596147
      8          1           0        0.350710    2.802657   -0.360261
      9          6           0        2.960701   -2.563038    0.281650
     10          8           0        4.127128   -3.206197   -0.252591
     11          1           0        3.888605   -4.176988   -0.201809
     12          6           0        2.637204   -1.146004   -0.162180
     13          8           0        1.370713   -0.850988    0.443037
     14          6           0        0.862838    0.391021   -0.067666
     15          8           0       -0.277924    0.595332    0.778965
     16          6           0       -1.473817    0.242466    0.068019
     17          6           0       -1.990487   -1.154682    0.368745
     18          8           0       -0.984089   -2.101273   -0.022242
     19          1           0       -0.112393   -1.663899    0.201641
     20          6           0       -3.280697   -1.561983   -0.323699
     21          8           0       -3.801291   -2.789638    0.206630
     22          1           0       -4.742146   -2.969165   -0.082100
     23          6           0       -2.383789    2.678833    0.078750
     24          8           0       -1.094348    3.283171    0.254783
     25          1           0       -1.231118    4.220450    0.574532
     26          6           0       -2.565285    1.221004    0.470122
     27          8           0       -3.708547    0.820809   -0.298461
     28          6           0       -4.266544   -0.460261    0.027719
     29          8           0       -5.432430   -0.537161   -0.805197
     30          1           0       -6.206360   -0.692424   -0.258822
     31          1           0       -4.535499   -0.504681    1.062412
     32          1           0       -3.143315   -1.628239   -1.382773
     33          1           0       -2.137572   -1.236524    1.425423
     34          1           0       -1.294496    0.330304   -0.983185
     35          1           0       -2.774607    1.138328    1.516185
     36          1           0       -3.088194    3.253539    0.643043
     37          1           0       -2.642843    2.768946   -0.955499
     38          1           0        5.570868   -0.646735    0.332706
     39          1           0        2.117298   -3.175563    0.040022
     40          1           0        3.060294   -2.550945    1.346936
     41          1           0        2.505960   -1.152321   -1.224081
     42          1           0        3.767086   -0.015679    1.239131
     43          1           0        3.205916    1.179951   -1.453070
     44          1           0        1.863438    1.806137    1.137181
     45          1           0        0.559948    0.284775   -1.088386
 ---------------------------------------------------------------------

 SCF Done:  E(RB3LYP) =  -1297.95068936     A.U. after   14 cycles

 The electronic state is 1-A.
 Alpha  occ. eigenvalues --  -19.20234 -19.19950 -19.19264 -19.18869 -19.18332
 Alpha  occ. eigenvalues --  -19.18091 -19.17262 -19.17111 -19.15634 -19.14160
 Alpha  occ. eigenvalues --  -19.13893 -10.31013 -10.30975 -10.26502 -10.26007
 Alpha  occ. eigenvalues --  -10.25919 -10.25823 -10.25622 -10.25230 -10.24598
 Alpha  occ. eigenvalues --  -10.24445 -10.24241 -10.24141  -1.11079  -1.09206
 Alpha  occ. eigenvalues --   -1.06021  -1.05625  -1.04575  -1.03494  -1.03049
 Alpha  occ. eigenvalues --   -1.02818  -1.01956  -1.00659  -0.99921  -0.81904
 Alpha  occ. eigenvalues --   -0.80454  -0.79746  -0.78069  -0.72143  -0.70112
 Alpha  occ. eigenvalues --   -0.67217  -0.65369  -0.63439  -0.62785  -0.61906
 Alpha  occ. eigenvalues --   -0.60338  -0.56648  -0.56236  -0.55651  -0.54711
 Alpha  occ. eigenvalues --   -0.54583  -0.53341  -0.52678  -0.52338  -0.51447
 Alpha  occ. eigenvalues --   -0.50491  -0.50062  -0.49024  -0.48843  -0.46872
 Alpha  occ. eigenvalues --   -0.46462  -0.45258  -0.43912  -0.43830  -0.43204
 Alpha  occ. eigenvalues --   -0.42821  -0.42061  -0.40838  -0.40113  -0.39644
 Alpha  occ. eigenvalues --   -0.38999  -0.38317  -0.37777  -0.36621  -0.36510
 Alpha  occ. eigenvalues --   -0.35901  -0.34998  -0.34619  -0.34405  -0.33916
 Alpha  occ. eigenvalues --   -0.33123  -0.31636  -0.31095  -0.30517  -0.30128
 Alpha  occ. eigenvalues --   -0.29606  -0.28845  -0.28428  -0.27487  -0.26724
 Alpha  occ. eigenvalues --   -0.26154
 Alpha virt. eigenvalues --   -0.02338  -0.02301  -0.01879  -0.00251   0.00105
 Alpha virt. eigenvalues --    0.01112   0.02036   0.02448   0.03239   0.03355
 Alpha virt. eigenvalues --    0.03996   0.04319   0.04960   0.05358   0.05436

 Mulliken atomic charges:
              1
     1  O   -0.529082
     2  C   -0.249371
     3  C    0.078756
     4  O   -0.497414
     5  H    0.350840
     6  C    0.074366
     7  O   -0.566284
     8  H    0.459951
     9  C   -0.083104
    10  O   -0.520353
    11  H    0.353936
    12  C    0.321039
    13  O   -0.414737
    14  C    0.056346
    15  O   -0.274820
    16  C   -0.363624
    17  C    0.078247
    18  O   -0.550118
    19  H    0.428703
    20  C    0.143979
    21  O   -0.518917
    22  H    0.349409
    23  C   -0.083237
    24  O   -0.626312
    25  H    0.399503
    26  C    0.217659
    27  O   -0.302906
    28  C    0.125861
    29  O   -0.548137
    30  H    0.356895
    31  H    0.129109
    32  H    0.152334
    33  H    0.141503
    34  H    0.130816
    35  H    0.135403
    36  H    0.129026
    37  H    0.162917
    38  H    0.373730
    39  H    0.141272
    40  H    0.136612
    41  H    0.134301
    42  H    0.142383
    43  H    0.143095
    44  H    0.146688
    45  H    0.133738
 Sum of Mulliken atomic charges =   0.00000

 Dipole moment (field-independent basis, Debye):
    X=             -3.5673    Y=             -0.2636    Z=              3.2914  Tot=              4.8609
 Quadrupole moment (field-independent basis, Debye-Ang):
   XX=           -117.8495   YY=           -137.5510   ZZ=           -140.1585
   XY=            -16.3657   XZ=             -0.1536   YZ=              4.8605

  Exact polarizability: 226.296   2.254 191.656   0.103   0.705 140.751
 Approx polarizability: 263.503   3.023 247.463  -0.285   1.536 230.988

 ******    7 imaginary frequencies (negative Signs) ******

                     1                      2                      3
                     A                      A                      A
 Frequencies --  -296.9708              -285.3654              -264.0662
 Red. masses --     1.1794                 1.6457                 1.7455
 Frc consts  --     0.0613                 0.0790                 0.0717
 IR Inten    --   110.2597                25.8051                 0.8409
 Raman Activ --     1.1524                 0.2046                 0.0385

                     4                      5                      6
                     A                      A                      A
 Frequencies --  -235.5406               -73.7709               -52.5042
 Red. masses --     1.2071                 6.7050                 6.4439
 Frc consts  --     0.0395                 0.0215                 0.0105
 IR Inten    --    96.9151                 1.5478                 0.1692
 Raman Activ --     0.7542                 0.0088                 0.0310

                     7                      8                      9
                     A                      A                      A
 Frequencies --   -27.3302                45.9897                66.9106
 Red. masses --     7.0159                 6.6338                 6.3630
 Frc consts  --     0.0031                 0.0083                 0.0168
 IR Inten    --     0.1842                 0.1351                 3.9670
 Raman Activ --     0.0534                 0.0184                 0.0917

                    10                     11                     12
                     A                      A                      A
 Frequencies --    87.4270                89.7538               117.1962
 Red. masses --     6.5336                 6.2485                 5.6007
 Frc consts  --     0.0294                 0.0297                 0.0453
 IR Inten    --     1.1166                 2.2067                 1.1270
 Raman Activ --     0.1626                 0.1677                 0.0945

                    13                     14                     15
                     A                      A                      A
 Frequencies --   156.6362               175.7775               181.3566
 Red. masses --     6.0500                 5.5924                 7.6251
 Frc consts  --     0.0875                 0.1018                 0.1478
 IR Inten    --     4.0265                 1.8451                 1.1393
 Raman Activ --     0.4871                 0.1805                 0.6444

                    16                     17                     18
                     A                      A                      A
 Frequencies --   224.7204               232.2626               268.8353
 Red. masses --     7.1819                 6.1540                 4.3566
 Frc consts  --     0.2137                 0.1956                 0.1855
 IR Inten    --     0.6785                 0.4828                19.2559
 Raman Activ --     3.0143                 0.2207                 0.4143

                    19                     20                     21
                     A                      A                      A
 Frequencies --   279.6032               287.6409               306.8249
 Red. masses --     4.7372                 4.9182                 5.2723
 Frc consts  --     0.2182                 0.2397                 0.2924
 IR Inten    --     0.5239                 1.9558                 4.3575
 Raman Activ --     0.0757                 0.1798                 0.2139

                    22                     23                     24
                     A                      A                      A
 Frequencies --   320.5407               324.8681               329.9348
 Red. masses --     5.3666                 5.9539                 6.0471
 Frc consts  --     0.3249                 0.3702                 0.3878
 IR Inten    --     6.6234                 2.9368                 7.7739
 Raman Activ --     0.7956                 3.9718                 2.4015

                    25                     26                     27
                     A                      A                      A
 Frequencies --   355.1999               374.7730               387.2921
 Red. masses --     6.8393                 4.4906                 7.5948
 Frc consts  --     0.5084                 0.3716                 0.6712
 IR Inten    --     9.1038                 1.7807                 4.0393
 Raman Activ --     1.0531                 0.6614                 3.1451

                    28                     29                     30
                     A                      A                      A
 Frequencies --   415.6943               424.6328               442.5998
 Red. masses --     5.1420                 4.5429                 5.0378
 Frc consts  --     0.5235                 0.4826                 0.5815
 IR Inten    --     8.9589                 5.1053                11.6158
 Raman Activ --     2.0066                 4.9992                 1.1517

                    31                     32                     33
                     A                      A                      A
 Frequencies --   451.0042               483.0074               500.2961
 Red. masses --     5.7923                 4.6608                 3.9995
 Frc consts  --     0.6942                 0.6407                 0.5898
 IR Inten    --     8.6854                 8.2304                12.0093
 Raman Activ --     1.8034                 2.7525                 0.6163

                    34                     35                     36
                     A                      A                      A
 Frequencies --   518.4724               540.5300               570.3654
 Red. masses --     3.7353                 3.0565                 4.1158
 Frc consts  --     0.5916                 0.5262                 0.7889
 IR Inten    --     9.8639                 7.4355                 5.5630
 Raman Activ --     5.1116                 3.2458                 2.0922

                    37                     38                     39
                     A                      A                      A
 Frequencies --   591.5875               607.3675               626.4314
 Red. masses --     3.2581                 4.6313                 5.8299
 Frc consts  --     0.6718                 1.0066                 1.3479
 IR Inten    --    35.7175                10.3341                15.1317
 Raman Activ --     0.6017                 0.4235                 1.3201

                    40                     41                     42
                     A                      A                      A
 Frequencies --   643.3711               656.0261               687.1129
 Red. masses --     3.9891                 1.0954                 1.0510
 Frc consts  --     0.9729                 0.2777                 0.2923
 IR Inten    --    29.0174               101.1981               105.2934
 Raman Activ --     1.2179                 1.6733                 2.4253

                    43                     44                     45
                     A                      A                      A
 Frequencies --   700.3179               712.1180               768.0898
 Red. masses --     5.8192                 1.0817                 1.0760
 Frc consts  --     1.6815                 0.3232                 0.3740
 IR Inten    --    12.8801               107.2825                92.1009
 Raman Activ --     0.7920                 1.5670                 1.3647

                    46                     47                     48
                     A                      A                      A
 Frequencies --   849.8736               852.6420               871.6155
 Red. masses --     1.6663                 1.4141                 1.0978
 Frc consts  --     0.7091                 0.6057                 0.4914
 IR Inten    --    18.2600                31.1159                61.1474
 Raman Activ --     1.3682                 0.5681                 0.5641

                    49                     50                     51
                     A                      A                      A
 Frequencies --   890.1504               947.7379               969.2382
 Red. masses --     1.2887                 4.5447                 6.0232
 Frc consts  --     0.6016                 2.4051                 3.3338
 IR Inten    --    53.0486               125.0539                16.5816
 Raman Activ --     1.6550                 3.4580                 1.2570

                    52                     53                     54
                     A                      A                      A
 Frequencies --   987.8093              1001.2325              1005.6888
 Red. masses --     5.0685                 6.0725                 4.1384
 Frc consts  --     2.9139                 3.5866                 2.4661
 IR Inten    --    79.8317               233.7542                45.5773
 Raman Activ --     3.4541                 0.7392                 0.5619

                    55                     56                     57
                     A                      A                      A
 Frequencies --  1010.8884              1028.1508              1037.1083
 Red. masses --     6.5815                 5.5516                 4.8189
 Frc consts  --     3.9626                 3.4577                 3.0539
 IR Inten    --   233.0138                20.2609                95.9460
 Raman Activ --     2.2266                 0.9427                 2.3475

                    58                     59                     60
                     A                      A                      A
 Frequencies --  1056.1288              1064.4244              1076.2133
 Red. masses --     3.2952                 2.8710                 3.0280
 Frc consts  --     2.1655                 1.9165                 2.0663
 IR Inten    --   278.9279                75.3835                57.4863
 Raman Activ --     1.9119                 8.6917                 4.7364

                    61                     62                     63
                     A                      A                      A
 Frequencies --  1079.1031              1087.2359              1092.0645
 Red. masses --     5.2470                 5.0279                 4.0598
 Frc consts  --     3.5999                 3.5017                 2.8526
 IR Inten    --    74.8175                58.5980                99.0486
 Raman Activ --     1.5301                 3.7443                 6.0217

                    64                     65                     66
                     A                      A                      A
 Frequencies --  1094.4672              1109.2507              1111.8316
 Red. masses --     2.6718                 2.8032                 2.8146
 Frc consts  --     1.8857                 2.0322                 2.0500
 IR Inten    --    84.4726                19.2733                93.4724
 Raman Activ --     9.6603                10.8166                 5.5711

                    67                     68                     69
                     A                      A                      A
 Frequencies --  1117.4383              1124.9158              1142.2865
 Red. masses --     3.4231                 2.9831                 2.4456
 Frc consts  --     2.5184                 2.2241                 1.8801
 IR Inten    --    13.8376                24.2155                27.3178
 Raman Activ --    13.4013                 7.0419                 6.7904

                    70                     71                     72
                     A                      A                      A
 Frequencies --  1145.6556              1151.7956              1159.5125
 Red. masses --     1.9518                 2.8111                 1.6835
 Frc consts  --     1.5094                 2.1972                 1.3336
 IR Inten    --     3.3724                25.1853                 3.9080
 Raman Activ --     2.4509                 3.0793                 3.5249

                    73                     74                     75
                     A                      A                      A
 Frequencies --  1169.3119              1180.7859              1193.4420
 Red. masses --     2.2959                 1.7728                 1.5754
 Frc consts  --     1.8496                 1.4563                 1.3220
 IR Inten    --    20.7445                 1.6217                18.7052
 Raman Activ --     4.1923                 1.3045                 3.3318

                    76                     77                     78
                     A                      A                      A
 Frequencies --  1200.0954              1210.5002              1230.3560
 Red. masses --     1.6911                 1.2966                 1.2040
 Frc consts  --     1.4350                 1.1194                 1.0738
 IR Inten    --     8.6448                14.3183                20.2936
 Raman Activ --     3.0642                 1.9690                 0.7399

                    79                     80                     81
                     A                      A                      A
 Frequencies --  1235.6289              1241.5597              1256.0893
 Red. masses --     1.2986                 1.3673                 1.2111
 Frc consts  --     1.1681                 1.2418                 1.1258
 IR Inten    --     7.1477                26.2860                17.3214
 Raman Activ --     2.6323                 1.7652                 0.6176

                    82                     83                     84
                     A                      A                      A
 Frequencies --  1267.6071              1272.1818              1286.2270
 Red. masses --     1.4000                 1.2672                 1.2941
 Frc consts  --     1.3254                 1.2084                 1.2614
 IR Inten    --    48.5405                 6.7598                 3.1182
 Raman Activ --     1.7338                 0.6026                 5.6219

                    85                     86                     87
                     A                      A                      A
 Frequencies --  1291.9259              1298.4764              1301.1151
 Red. masses --     1.2990                 1.2813                 1.2769
 Frc consts  --     1.2774                 1.2728                 1.2736
 IR Inten    --    20.0791                10.1589                49.4821
 Raman Activ --     3.3438                 2.7908                 6.1790

                    88                     89                     90
                     A                      A                      A
 Frequencies --  1311.1999              1320.3313              1324.5542
 Red. masses --     1.2475                 1.2619                 1.3513
 Frc consts  --     1.2636                 1.2961                 1.3969
 IR Inten    --     2.6953                 7.5650                15.7950
 Raman Activ --    13.1185                 2.3596                 7.3948

                    91                     92                     93
                     A                      A                      A
 Frequencies --  1334.5449              1347.3524              1359.3694
 Red. masses --     1.3054                 1.2984                 1.1590
 Frc consts  --     1.3698                 1.3888                 1.2618
 IR Inten    --    28.2832                11.1394                43.2706
 Raman Activ --     4.8212                 2.5817                 2.0133

                    94                     95                     96
                     A                      A                      A
 Frequencies --  1362.3358              1368.1361              1376.8280
 Red. masses --     1.2983                 1.3787                 1.5581
 Frc consts  --     1.4197                 1.5205                 1.7402
 IR Inten    --    24.6651                 4.5437                 0.8465
 Raman Activ --     3.4402                 5.2399                10.7521

                    97                     98                     99
                     A                      A                      A
 Frequencies --  1381.7451              1391.7463              1402.6478
 Red. masses --     1.5213                 1.7062                 1.4911
 Frc consts  --     1.7113                 1.9472                 1.7285
 IR Inten    --    23.5545                36.3121                 8.8984
 Raman Activ --     3.5771                 0.9436                 3.8481

                   100                    101                    102
                     A                      A                      A
 Frequencies --  1422.7705              1456.3933              1464.4311
 Red. masses --     1.3284                 1.3722                 1.3590
 Frc consts  --     1.5843                 1.7149                 1.7171
 IR Inten    --     0.8155                28.9511                42.7900
 Raman Activ --    11.1614                 1.7159                 0.5274

                   103                    104                    105
                     A                      A                      A
 Frequencies --  1477.7973              1478.0212              1487.3743
 Red. masses --     1.1047                 1.1011                 1.3299
 Frc consts  --     1.4215                 1.4172                 1.7334
 IR Inten    --     4.5990                 1.5717                21.2501
 Raman Activ --     5.8454                 5.3604                 0.4793

                   106                    107                    108
                     A                      A                      A
 Frequencies --  1500.0763              1540.7160              3264.2778
 Red. masses --     1.3176                 1.2070                 1.0673
 Frc consts  --     1.7469                 1.6881                 6.7008
 IR Inten    --    53.0431                60.5457               342.2188
 Raman Activ --     0.6599                 1.8824               165.9669

                   109                    110                    111
                     A                      A                      A
 Frequencies --  3266.2885              3275.7707              3280.8036
 Red. masses --     1.0579                 1.0664                 1.0688
 Frc consts  --     6.6498                 6.7424                 6.7781
 IR Inten    --    18.6283               419.3839               525.8627
 Raman Activ --    78.7385               176.4064                91.2113

                   112                    113                    114
                     A                      A                      A
 Frequencies --  3286.3192              3290.2135              3292.5654
 Red. masses --     1.0836                 1.0847                 1.0803
 Frc consts  --     6.8952                 6.9183                 6.9000
 IR Inten    --    21.4706                 4.8378               182.7962
 Raman Activ --    69.5772                24.6813                65.0120

                   115                    116                    117
                     A                      A                      A
 Frequencies --  3294.2011              3297.5967              3300.6550
 Red. masses --     1.0829                 1.0851                 1.0854
 Frc consts  --     6.9237                 6.9523                 6.9672
 IR Inten    --   101.1337               124.9849                73.4871
 Raman Activ --    67.5655                73.4627               122.4982

                   118                    119                    120
                     A                      A                      A
 Frequencies --  3302.7444              3309.7584              3315.4120
 Red. masses --     1.0859                 1.0854                 1.0877
 Frc consts  --     6.9792                 7.0056                 7.0440
 IR Inten    --    28.6774                49.8619                49.4338
 Raman Activ --    96.3737                12.3895                12.6651

                   121                    122                    123
                     A                      A                      A
 Frequencies --  3322.7595              3323.5316              3335.5293
 Red. masses --     1.0925                 1.0982                 1.1066
 Frc consts  --     7.1064                 7.1471                 7.2540
 IR Inten    --    14.2457               108.7931                44.6530
 Raman Activ --    25.6083                28.1308                43.9425

                   124                    125                    126
                     A                      A                      A
 Frequencies --  3377.9695              3380.4678              3383.0186
 Red. masses --     1.0649                 1.0676                 1.0668
 Frc consts  --     7.1590                 7.1884                 7.1932
 IR Inten    --    31.1340                37.2939                35.6087
 Raman Activ --    80.6673               146.8792               163.1526

                   127                    128                    129
                     A                      A                      A
 Frequencies --  3404.6075              3919.6148              3919.7542
 Red. masses --     1.0683                 1.0677                 1.0677
 Frc consts  --     7.2956                 9.6644                 9.6654
 IR Inten    --    67.2029               102.6692                37.0221
 Raman Activ --   146.1030                61.8585               144.1879

 - Thermochemistry -
 -------------------
 Temperature   298.150 Kelvin.  Pressure   1.00000 Atm.
 Atom     1 has atomic number  8 and mass  15.99491

 Molecular mass:   342.11621 amu.
 Principal axes and moments of inertia in atomic units:
                           1         2         3
     Eigenvalues --  4420.61824********************
           X            0.99997  -0.00811  -0.00044
           Y            0.00811   0.99997   0.00059
           Z            0.00043  -0.00059   1.00000
 This molecule is an asymmetric top.
 Rotational symmetry number  1.
 Warning -- assumption of classical behavior for rotation
           may cause significant error
 Rotational temperatures (Kelvin)      0.01959     0.00723     0.00543
 Rotational constants (GHZ):           0.40826     0.15058     0.11319
    7 imaginary frequencies ignored.
 Zero-point vibrational energy     980367.0 (Joules/Mol)
                                  234.31333 (Kcal/Mol)
 Warning -- explicit consideration of  31 degrees of freedom as
           vibrations may cause significant error
 Vibrational temperatures:     66.17    96.27   125.79   129.14   168.62
          (Kelvin)            225.36   252.90   260.93   323.32   334.17
                              386.79   402.29   413.85   441.45   461.19
                              467.41   474.70   511.05   539.21   557.23
                              598.09   610.95   636.80   648.89   694.94
                              719.81   745.97   777.70   820.63   851.16
                              873.87   901.29   925.67   943.87   988.60
                             1007.60  1024.58  1105.11  1222.78  1226.76
                             1254.06  1280.73  1363.58  1394.52  1421.24
                             1440.55  1446.96  1454.44  1479.28  1492.17
                             1519.53  1531.47  1548.43  1552.59  1564.29
                             1571.24  1574.69  1595.96  1599.68  1607.74
                             1618.50  1643.49  1648.34  1657.17  1668.28
                             1682.38  1698.89  1717.09  1726.67  1741.64
                             1770.21  1777.79  1786.33  1807.23  1823.80
                             1830.38  1850.59  1858.79  1868.22  1872.01
                             1886.52  1899.66  1905.74  1920.11  1938.54
                             1955.83  1960.09  1968.44  1980.95  1988.02
                             2002.41  2018.09  2047.05  2095.42  2106.99
                             2126.22  2126.54  2140.00  2158.27  2216.74
                             4696.56  4699.45  4713.10  4720.34  4728.27
                             4733.88  4737.26  4739.61  4744.50  4748.90
                             4751.91  4762.00  4770.13  4780.70  4781.81
                             4799.08  4860.14  4863.73  4867.40  4898.46
                             5639.44  5639.64

 Zero-point correction=                           0.373402 (Hartree/Particle)
 Thermal correction to Energy=                    0.391482
 Thermal correction to Enthalpy=                  0.392426
 Thermal correction to Gibbs Free Energy=         0.328185
 Sum of electronic and zero-point Energies=          -1297.577287
 Sum of electronic and thermal Energies=             -1297.559207
 Sum of electronic and thermal Enthalpies=           -1297.558263
 Sum of electronic and thermal Free Energies=        -1297.622504

                     E (Thermal)             CV                S
                      KCal/Mol        Cal/Mol-Kelvin    Cal/Mol-Kelvin
 Total                  245.659             75.117            135.207
 Electronic               0.000              0.000              0.000
 Translational            0.889              2.981             43.384
 Rotational               0.889              2.981             35.090
 Vibrational            243.881             69.155             56.733
 Vibration     1          0.595              1.979              4.983
 Vibration     2          0.598              1.970              4.242
 Vibration     3          0.601              1.958              3.717
 Vibration     4          0.602              1.956              3.665
 Vibration     5          0.608              1.935              3.146
 Vibration     6          0.620              1.895              2.590
 Vibration     7          0.628              1.872              2.373
 Vibration     8          0.630              1.865              2.314
 Vibration     9          0.649              1.803              1.921
 Vibration    10          0.653              1.792              1.861
 Vibration    11          0.673              1.730              1.604
 Vibration    12          0.680              1.711              1.536
 Vibration    13          0.685              1.697              1.488
 Vibration    14          0.697              1.661              1.379
 Vibration    15          0.706              1.634              1.307
 Vibration    16          0.709              1.626              1.285
 Vibration    17          0.713              1.616              1.260
 Vibration    18          0.731              1.565              1.143
 Vibration    19          0.746              1.524              1.060
 Vibration    20          0.756              1.497              1.011
 Vibration    21          0.779              1.436              0.907
 Vibration    22          0.787              1.417              0.876
 Vibration    23          0.802              1.377              0.818
 Vibration    24          0.810              1.359              0.793
 Vibration    25          0.839              1.288              0.702
 Vibration    26          0.856              1.249              0.657
 Vibration    27          0.873              1.209              0.614
 Vibration    28          0.896              1.160              0.564
 Vibration    29          0.926              1.095              0.504
 Vibration    30          0.949              1.050              0.464
 Vibration    31          0.966              1.016              0.437

 Normal termination of Gaussian 09 at Tue Mar  1 03:52:54 2016.
