 Gaussian 09, Revision B.01,
 Gaussian 09:  EM64L-G09RevB.01 12-Aug-2010

 --------------------------------------------------
 # freq=raman b3lyp/6-31+g(2df,p) geom=connectivity
 --------------------------------------------------

 ------------
 320 5000.com
 ------------
 Symbolic Z-matrix:
 Charge =  0 Multiplicity = 1

                         Standard orientation:
 ---------------------------------------------------------------------
 Center     Atomic      Atomic             Coordinates (Angstroms)
 Number     Number       Type             X           Y           Z
 ---------------------------------------------------------------------
      1          8           0       -5.030838   -0.356026    0.294092
      2          6           0       -3.695115   -0.099323   -0.162558
      3          6           0       -3.209317    1.263311    0.305662
      4          8           0       -3.991167    2.315074   -0.278431
      5          1           0       -4.928179    2.057771   -0.046145
      6          6           0       -1.775821    1.535721   -0.120466
      7          8           0       -1.098950    2.631202    0.512768
      8          1           0       -0.250125    2.900537    0.056260
      9          6           0       -3.096525   -2.485104   -0.104899
     10          8           0       -4.342680   -3.107291    0.242206
     11          1           0       -4.257821   -4.053862   -0.067949
     12          6           0       -2.733560   -1.111918    0.437468
     13          8           0       -1.433842   -0.884501   -0.126867
     14          6           0       -0.858311    0.378748    0.238691
     15          8           0        0.302430    0.558980   -0.584458
     16          6           0        1.528166    0.224901    0.084208
     17          6           0        1.975133   -1.142554   -0.405968
     18          8           0        0.979825   -2.175177   -0.402490
     19          1           0        0.195136   -1.663860   -0.752004
     20          6           0        3.302627   -1.638355    0.144589
     21          8           0        3.900166   -2.775728   -0.494302
     22          1           0        4.740120   -3.070267   -0.039243
     23          6           0        2.384694    2.702889    0.053231
     24          8           0        1.312261    3.544133   -0.393280
     25          1           0        1.577725    4.501530   -0.282568
     26          6           0        2.600063    1.237016   -0.287111
     27          8           0        3.758587    0.809716    0.442984
     28          6           0        4.259787   -0.464750    0.012789
     29          8           0        5.327861   -0.731074    0.932886
     30          1           0        6.134309   -0.910206    0.443853
     31          1           0        4.637511   -0.400155   -0.986236
     32          1           0        3.176829   -1.860971    1.183587
     33          1           0        2.173231   -0.983346   -1.445348
     34          1           0        1.381632    0.210213    1.144025
     35          1           0        2.802027    1.154312   -1.334618
     36          1           0        1.527540    2.236026    0.491667
     37          1           0        2.539966    2.732274   -1.005035
     38          1           0       -5.609924   -0.476483   -0.462049
     39          1           0       -2.318178   -3.155412    0.194707
     40          1           0       -3.067433   -2.417417   -1.172360
     41          1           0       -2.723722   -1.085836    1.507105
     42          1           0       -3.658798   -0.151484   -1.230669
     43          1           0       -3.279631    1.318412    1.371927
     44          1           0       -1.752706    1.680769   -1.180337
     45          1           0       -0.599669    0.399509    1.276753
 ---------------------------------------------------------------------

 SCF Done:  E(RB3LYP) =  -1297.71807600     A.U. after   15 cycles

 The electronic state is 1-A.
 Alpha  occ. eigenvalues --  -19.20357 -19.19969 -19.18938 -19.18512 -19.17897
 Alpha  occ. eigenvalues --  -19.17287 -19.16975 -19.16196 -19.15715 -19.14707
 Alpha  occ. eigenvalues --  -19.14297 -10.30887 -10.30691 -10.30654 -10.26544
 Alpha  occ. eigenvalues --  -10.25963 -10.25423 -10.25325 -10.24741 -10.24686
 Alpha  occ. eigenvalues --  -10.24623 -10.23872 -10.20310  -1.11060  -1.09780
 Alpha  occ. eigenvalues --   -1.08326  -1.06001  -1.04815  -1.04166  -1.03089
 Alpha  occ. eigenvalues --   -1.02767  -1.02449  -1.01521  -1.00849  -0.84880
 Alpha  occ. eigenvalues --   -0.81390  -0.80692  -0.78865  -0.74071  -0.70357
 Alpha  occ. eigenvalues --   -0.67602  -0.65560  -0.64202  -0.62866  -0.62701
 Alpha  occ. eigenvalues --   -0.61100  -0.58258  -0.56725  -0.55946  -0.55294
 Alpha  occ. eigenvalues --   -0.54470  -0.54328  -0.53267  -0.52379  -0.52005
 Alpha  occ. eigenvalues --   -0.51518  -0.50098  -0.49722  -0.48932  -0.48254
 Alpha  occ. eigenvalues --   -0.46139  -0.45635  -0.44428  -0.44267  -0.43527
 Alpha  occ. eigenvalues --   -0.43354  -0.42516  -0.41862  -0.41002  -0.39764
 Alpha  occ. eigenvalues --   -0.39575  -0.38333  -0.37780  -0.36692  -0.36273
 Alpha  occ. eigenvalues --   -0.36137  -0.35240  -0.34846  -0.33813  -0.33698
 Alpha  occ. eigenvalues --   -0.31951  -0.31862  -0.31451  -0.30335  -0.29576
 Alpha  occ. eigenvalues --   -0.29111  -0.28600  -0.28032  -0.27213  -0.26535
 Alpha  occ. eigenvalues --   -0.21302
 Alpha virt. eigenvalues --   -0.09316  -0.02086  -0.02021  -0.00402  -0.00159
 Alpha virt. eigenvalues --    0.00592   0.01264   0.01417   0.02067   0.03104
 Alpha virt. eigenvalues --    0.03613   0.04014   0.04483   0.04615   0.05080

 Mulliken atomic charges:
              1
     1  O   -0.444908
     2  C   -0.096191
     3  C    0.060971
     4  O   -0.459838
     5  H    0.340683
     6  C   -0.239007
     7  O   -0.481326
     8  H    0.425375
     9  C   -0.286019
    10  O   -0.445207
    11  H    0.338274
    12  C   -0.034900
    13  O   -0.028723
    14  C    0.010420
    15  O   -0.046648
    16  C   -0.052890
    17  C    0.053654
    18  O   -0.424382
    19  H    0.372045
    20  C   -0.089447
    21  O   -0.454527
    22  H    0.349470
    23  C   -1.338749
    24  O   -0.482171
    25  H    0.400271
    26  C    0.486081
    27  O    0.060481
    28  C    0.060647
    29  O   -0.470320
    30  H    0.347532
    31  H    0.140304
    32  H    0.142053
    33  H    0.112767
    34  H    0.136842
    35  H    0.120791
    36  H    0.275148
    37  H    0.312484
    38  H    0.353607
    39  H    0.154803
    40  H    0.139842
    41  H    0.129396
    42  H    0.132972
    43  H    0.137266
    44  H    0.144568
    45  H    0.136508
 Sum of Mulliken atomic charges =   0.00000

 Dipole moment (field-independent basis, Debye):
    X=              0.9284    Y=             -1.3318    Z=             -3.3016  Tot=              3.6791
 Quadrupole moment (field-independent basis, Debye-Ang):
   XX=           -122.2409   YY=           -141.1956   ZZ=           -139.9295
   XY=              3.0352   XZ=             -1.6073   YZ=             -6.4133

  Exact polarizability: 240.737  -4.085 213.322   2.456  -0.458 147.022
 Approx polarizability: 286.964  -7.613 283.906   1.473  -2.595 249.121

 ******   10 imaginary frequencies (negative Signs) ******

                     1                      2                      3
                     A                      A                      A
 Frequencies -- -1879.5864              -823.1370              -604.3499
 Red. masses --     1.0482                 1.1456                 3.1497
 Frc consts  --     2.1817                 0.4573                 0.6778
 IR Inten    --   569.9964                50.5586                29.2410
 Raman Activ --    58.8199                10.0646                 4.9668

                     4                      5                      6
                     A                      A                      A
 Frequencies --  -470.9150              -273.7411              -236.2673
 Red. masses --     1.7001                 1.7171                 1.2020
 Frc consts  --     0.2221                 0.0758                 0.0395
 IR Inten    --   262.0144                24.0961               111.8903
 Raman Activ --    61.7924                 0.1360                 2.1043

                     7                      8                      9
                     A                      A                      A
 Frequencies --  -215.6701              -161.2791               -88.5903
 Red. masses --     1.2356                 6.1860                 6.4135
 Frc consts  --     0.0339                 0.0948                 0.0297
 IR Inten    --    91.0382                 8.0950                 2.6077
 Raman Activ --     0.9373                 0.3998                 0.0832

                    10                     11                     12
                     A                      A                      A
 Frequencies --   -56.8662                23.8419                53.7745
 Red. masses --     6.6056                 6.4709                 6.5085
 Frc consts  --     0.0126                 0.0022                 0.0111
 IR Inten    --     1.1276                 1.4891                 0.2967
 Raman Activ --     0.1626                 0.1717                 0.2353

                    13                     14                     15
                     A                      A                      A
 Frequencies --    70.3088                80.1350                91.9069
 Red. masses --     5.9606                 5.5959                 5.8088
 Frc consts  --     0.0174                 0.0212                 0.0289
 IR Inten    --     3.6620                 0.5432                 2.4320
 Raman Activ --     0.6231                 0.0531                 0.0839

                    16                     17                     18
                     A                      A                      A
 Frequencies --   118.9086               163.3852               186.8818
 Red. masses --     5.7853                 6.0473                 5.8974
 Frc consts  --     0.0482                 0.0951                 0.1214
 IR Inten    --    10.2178                18.7443                 1.3988
 Raman Activ --     1.0802                 3.0786                 1.2974

                    19                     20                     21
                     A                      A                      A
 Frequencies --   200.1370               226.1905               260.8137
 Red. masses --     7.1565                 5.9619                 5.0494
 Frc consts  --     0.1689                 0.1797                 0.2024
 IR Inten    --     0.3998                 9.9000                 3.3089
 Raman Activ --     2.2544                 1.8456                 2.3060

                    22                     23                     24
                     A                      A                      A
 Frequencies --   278.7091               285.6102               297.2937
 Red. masses --     5.6249                 4.7530                 5.5336
 Frc consts  --     0.2574                 0.2284                 0.2882
 IR Inten    --     5.1272                 2.9259                16.6143
 Raman Activ --     1.1375                 2.0481                 5.7013

                    25                     26                     27
                     A                      A                      A
 Frequencies --   306.0255               308.2300               330.3542
 Red. masses --     4.9142                 5.7274                 6.9673
 Frc consts  --     0.2712                 0.3206                 0.4480
 IR Inten    --     2.1057                 5.8789                 3.3576
 Raman Activ --     0.0982                 3.0737                 3.9351

                    28                     29                     30
                     A                      A                      A
 Frequencies --   334.2019               349.8108               387.5264
 Red. masses --     6.2200                 5.8218                 4.7321
 Frc consts  --     0.4093                 0.4197                 0.4187
 IR Inten    --     7.6115                 1.5932                 4.3012
 Raman Activ --     2.7314                 1.6414                 2.4234

                    31                     32                     33
                     A                      A                      A
 Frequencies --   398.6109               411.3623               420.6419
 Red. masses --     7.0258                 6.4596                 5.7078
 Frc consts  --     0.6577                 0.6440                 0.5950
 IR Inten    --     0.2151                 1.3398                16.9062
 Raman Activ --     1.2185                 6.8220                 2.6580

                    34                     35                     36
                     A                      A                      A
 Frequencies --   446.1574               485.6631               490.0731
 Red. masses --     4.6863                 4.0058                 5.6408
 Frc consts  --     0.5496                 0.5567                 0.7982
 IR Inten    --     9.6504                 3.8044                 7.6145
 Raman Activ --     6.1740                 2.7815                 0.2813

                    37                     38                     39
                     A                      A                      A
 Frequencies --   505.5726               541.1405               565.7362
 Red. masses --     3.1547                 2.7939                 5.4410
 Frc consts  --     0.4751                 0.4820                 1.0260
 IR Inten    --    33.0858                13.2978                25.9751
 Raman Activ --     2.3563                 3.2140                 1.7354

                    40                     41                     42
                     A                      A                      A
 Frequencies --   584.7396               602.8391               605.1534
 Red. masses --     3.6759                 4.7279                 1.8361
 Frc consts  --     0.7405                 1.0123                 0.3962
 IR Inten    --     5.0278                15.1928                76.6803
 Raman Activ --     1.7178                 1.4354                 4.0518

                    43                     44                     45
                     A                      A                      A
 Frequencies --   624.0289               641.4923               678.4458
 Red. masses --     2.0860                 2.9379                 5.1141
 Frc consts  --     0.4786                 0.7123                 1.3869
 IR Inten    --    59.8504                12.1508                14.3541
 Raman Activ --     3.5662                 0.6810                 2.1291

                    46                     47                     48
                     A                      A                      A
 Frequencies --   703.6425               725.9579               783.6482
 Red. masses --     1.0546                 1.0733                 1.0883
 Frc consts  --     0.3077                 0.3333                 0.3938
 IR Inten    --   102.2349               103.5063               101.7088
 Raman Activ --     2.3155                 1.7807                 1.7319

                    49                     50                     51
                     A                      A                      A
 Frequencies --   790.9270               836.1292               858.2501
 Red. masses --     1.1276                 1.5026                 2.0226
 Frc consts  --     0.4156                 0.6189                 0.8778
 IR Inten    --   121.2491               126.0651                31.4492
 Raman Activ --     5.5213                 6.0697                 2.4097

                    52                     53                     54
                     A                      A                      A
 Frequencies --   863.1494               941.5629               946.7447
 Red. masses --     2.4772                 4.9142                 1.7943
 Frc consts  --     1.0874                 2.5669                 0.9475
 IR Inten    --    57.6598               164.2073               151.7945
 Raman Activ --     2.5156                 8.4565                 8.1084

                    55                     56                     57
                     A                      A                      A
 Frequencies --   963.2847               976.9876               981.6321
 Red. masses --     3.1492                 4.7608                 3.6815
 Frc consts  --     1.7217                 2.6773                 2.0901
 IR Inten    --   163.8144                13.9398                85.0073
 Raman Activ --     1.6080                 5.3660                 5.6131

                    58                     59                     60
                     A                      A                      A
 Frequencies --   988.4510               995.4816              1012.0022
 Red. masses --     6.0292                 5.1607                 8.7847
 Frc consts  --     3.4707                 3.0132                 5.3008
 IR Inten    --    28.2075                77.6503               498.1447
 Raman Activ --     1.0841                 2.9255                 1.7559

                    61                     62                     63
                     A                      A                      A
 Frequencies --  1028.4534              1041.6406              1056.5222
 Red. masses --     6.1812                 4.4790                 4.2760
 Frc consts  --     3.8521                 2.8633                 2.8122
 IR Inten    --    77.9510               148.6369                59.1927
 Raman Activ --     4.2358                 5.1501                 8.3178

                    64                     65                     66
                     A                      A                      A
 Frequencies --  1066.8947              1072.4104              1075.7147
 Red. masses --     3.3761                 3.6703                 3.9711
 Frc consts  --     2.2642                 2.4870                 2.7075
 IR Inten    --    14.6224                79.7273                 9.4426
 Raman Activ --    10.6398                12.0439                 2.1488

                    67                     68                     69
                     A                      A                      A
 Frequencies --  1094.8833              1103.1379              1107.3721
 Red. masses --     2.9097                 2.3485                 2.3050
 Frc consts  --     2.0551                 1.6839                 1.6654
 IR Inten    --    34.5961                57.9549                39.6000
 Raman Activ --    12.9665                 3.0520                 9.8859

                    70                     71                     72
                     A                      A                      A
 Frequencies --  1116.8695              1121.0229              1126.5028
 Red. masses --     2.7201                 2.1899                 2.1523
 Frc consts  --     1.9991                 1.6214                 1.6092
 IR Inten    --     2.6487                81.6036                27.3651
 Raman Activ --     5.4990                 5.8460                 4.1759

                    73                     74                     75
                     A                      A                      A
 Frequencies --  1131.9301              1135.3626              1143.3430
 Red. masses --     2.7552                 2.0777                 1.4090
 Frc consts  --     2.0799                 1.5780                 1.0852
 IR Inten    --    33.2221                33.4895                 7.7070
 Raman Activ --     2.3512                 5.6725                 1.6700

                    76                     77                     78
                     A                      A                      A
 Frequencies --  1159.4153              1172.4948              1193.9736
 Red. masses --     1.7719                 2.3430                 1.3329
 Frc consts  --     1.4034                 1.8978                 1.1196
 IR Inten    --    21.9581                 3.4506                12.0198
 Raman Activ --     1.3690                 2.9104                 0.7963

                    79                     80                     81
                     A                      A                      A
 Frequencies --  1203.3577              1210.0367              1238.1903
 Red. masses --     1.3875                 1.3341                 1.2896
 Frc consts  --     1.1838                 1.1509                 1.1649
 IR Inten    --    10.7956                 3.2289                 5.6429
 Raman Activ --     2.1813                 3.1863                 2.1075

                    82                     83                     84
                     A                      A                      A
 Frequencies --  1246.2091              1248.9189              1257.4972
 Red. masses --     1.2812                 1.2339                 1.3848
 Frc consts  --     1.1723                 1.1340                 1.2902
 IR Inten    --    36.2356                 6.9881                26.9219
 Raman Activ --     0.9584                 0.8480                 4.3533

                    85                     86                     87
                     A                      A                      A
 Frequencies --  1282.7272              1285.8190              1287.6441
 Red. masses --     1.3455                 1.3457                 1.4044
 Frc consts  --     1.3044                 1.3109                 1.3720
 IR Inten    --     7.9034                21.4085                 9.1800
 Raman Activ --     2.4469                 2.3012                 2.4711

                    88                     89                     90
                     A                      A                      A
 Frequencies --  1292.3136              1299.3194              1314.1379
 Red. masses --     1.2415                 1.2823                 1.3901
 Frc consts  --     1.2216                 1.2754                 1.4144
 IR Inten    --    46.8054                16.9548                 4.6413
 Raman Activ --    11.9662                 2.0346                 8.3536

                    91                     92                     93
                     A                      A                      A
 Frequencies --  1321.3290              1329.8561              1333.9945
 Red. masses --     1.3113                 1.2766                 1.2647
 Frc consts  --     1.3489                 1.3302                 1.3260
 IR Inten    --     8.4650                16.0192                34.7567
 Raman Activ --     3.6598                 5.5283                 5.2990

                    94                     95                     96
                     A                      A                      A
 Frequencies --  1345.9604              1353.8803              1358.4420
 Red. masses --     1.2117                 1.4067                 1.4533
 Frc consts  --     1.2933                 1.5192                 1.5801
 IR Inten    --   131.1679                32.5147                18.4962
 Raman Activ --    13.3281                 5.2820                 5.8674

                    97                     98                     99
                     A                      A                      A
 Frequencies --  1368.5606              1378.1373              1386.8144
 Red. masses --     1.2138                 1.2425                 1.5290
 Frc consts  --     1.3394                 1.3903                 1.7326
 IR Inten    --    13.7619                 4.1380                 4.1848
 Raman Activ --     7.2406                 6.1851                 6.5327

                   100                    101                    102
                     A                      A                      A
 Frequencies --  1399.0267              1400.3257              1423.9719
 Red. masses --     1.4089                 1.4793                 1.5832
 Frc consts  --     1.6247                 1.7091                 1.8915
 IR Inten    --    14.7276                42.0346                18.3278
 Raman Activ --     1.5231                 4.8291                11.6496

                   103                    104                    105
                     A                      A                      A
 Frequencies --  1462.8702              1470.0480              1484.3857
 Red. masses --     1.3955                 1.0890                 1.3438
 Frc consts  --     1.7595                 1.3866                 1.7445
 IR Inten    --    49.4633                 7.6425                15.4115
 Raman Activ --     2.0748                 5.5800                 0.3682

                   106                    107                    108
                     A                      A                      A
 Frequencies --  1498.9480              1520.6947              3191.6034
 Red. masses --     1.2851                 1.2889                 1.0507
 Frc consts  --     1.7012                 1.7561                 6.3058
 IR Inten    --    69.8261                55.6779                 9.9819
 Raman Activ --     9.0169                 1.9042               294.4130

                   109                    110                    111
                     A                      A                      A
 Frequencies --  3214.4373              3239.3588              3246.3429
 Red. masses --     1.0766                 1.0657                 1.0794
 Frc consts  --     6.5543                 6.5888                 6.7023
 IR Inten    --   116.3954               651.5596                23.2062
 Raman Activ --    91.3925               108.5025               102.7593

                   112                    113                    114
                     A                      A                      A
 Frequencies --  3252.2784              3278.1068              3281.0124
 Red. masses --     1.0575                 1.0831                 1.0839
 Frc consts  --     6.5905                 6.8574                 6.8750
 IR Inten    --    33.8049                 8.8774                 2.3566
 Raman Activ --    62.8943                91.9690                92.7656

                   115                    116                    117
                     A                      A                      A
 Frequencies --  3283.4823              3286.4187              3290.5890
 Red. masses --     1.0857                 1.0854                 1.0871
 Frc consts  --     6.8966                 6.9072                 6.9353
 IR Inten    --     0.8627                 1.7188                 4.2226
 Raman Activ --    13.3686                33.4914               107.7771

                   118                    119                    120
                     A                      A                      A
 Frequencies --  3293.6180              3296.7938              3301.6177
 Red. masses --     1.0883                 1.0876                 1.0903
 Frc consts  --     6.9560                 6.9649                 7.0026
 IR Inten    --    21.6280                29.5401                35.2869
 Raman Activ --    11.9849                20.2453                13.7033

                   121                    122                    123
                     A                      A                      A
 Frequencies --  3310.0702              3337.5748              3352.2415
 Red. masses --     1.0959                 1.0648                 1.0688
 Frc consts  --     7.0743                 6.9885                 7.0764
 IR Inten    --    70.7456               278.9158               217.9448
 Raman Activ --     9.8528               101.9475               155.4508

                   124                    125                    126
                     A                      A                      A
 Frequencies --  3359.6787              3364.0571              3365.4205
 Red. masses --     1.0668                 1.0666                 1.0648
 Frc consts  --     7.0948                 7.1120                 7.1055
 IR Inten    --    38.3532                48.7006                28.9113
 Raman Activ --   148.7738               157.8194               120.4771

                   127                    128                    129
                     A                      A                      A
 Frequencies --  3398.8261              3876.6756              3877.2052
 Red. masses --     1.1039                 1.0674                 1.0676
 Frc consts  --     7.5137                 9.4517                 9.4559
 IR Inten    --   288.4127                87.8223                67.0926
 Raman Activ --    28.8114               120.8473               109.1770

 - Thermochemistry -
 -------------------
 Temperature   298.150 Kelvin.  Pressure   1.00000 Atm.
 Atom     1 has atomic number  8 and mass  15.99491

 Molecular mass:   342.11621 amu.
 Principal axes and moments of inertia in atomic units:
                           1         2         3
     Eigenvalues --  4484.68612********************
           X            0.99999   0.00480  -0.00077
           Y           -0.00480   0.99999  -0.00174
           Z            0.00076   0.00175   1.00000
 This molecule is an asymmetric top.
 Rotational symmetry number  1.
 Warning -- assumption of classical behavior for rotation
           may cause significant error
 Rotational temperatures (Kelvin)      0.01931     0.00713     0.00536
 Rotational constants (GHZ):           0.40242     0.14848     0.11171
   10 imaginary frequencies ignored.
 Zero-point vibrational energy     947276.9 (Joules/Mol)
                                  226.40460 (Kcal/Mol)
 Warning -- explicit consideration of  32 degrees of freedom as
           vibrations may cause significant error
 Vibrational temperatures:     34.30    77.37   101.16   115.30   132.23
          (Kelvin)            171.08   235.07   268.88   287.95   325.44
                              375.25   401.00   410.93   427.74   440.30
                              443.47   475.31   480.84   503.30   557.56
                              573.51   591.86   605.21   641.92   698.76
                              705.11   727.41   778.58   813.97   841.31
                              867.35   870.68   897.84   922.96   976.13
                             1012.38  1044.49  1127.49  1137.97  1203.00
                             1234.83  1241.88  1354.70  1362.15  1385.95
                             1405.67  1412.35  1422.16  1432.27  1456.04
                             1479.71  1498.69  1520.10  1535.02  1542.96
                             1547.71  1575.29  1587.17  1593.26  1606.92
                             1612.90  1620.78  1628.59  1633.53  1645.01
                             1668.14  1686.96  1717.86  1731.36  1740.97
                             1781.48  1793.01  1796.91  1809.26  1845.56
                             1850.00  1852.63  1859.35  1869.43  1890.75
                             1901.10  1913.36  1919.32  1936.53  1947.93
                             1954.49  1969.05  1982.83  1995.31  2012.88
                             2014.75  2048.78  2104.74  2115.07  2135.70
                             2156.65  2187.94  4592.00  4624.85  4660.71
                             4670.76  4679.30  4716.46  4720.64  4724.19
                             4728.42  4734.42  4738.78  4743.34  4750.29
                             4762.45  4802.02  4823.12  4833.82  4840.12
                             4842.08  4890.15  5577.66  5578.43

 Zero-point correction=                           0.360799 (Hartree/Particle)
 Thermal correction to Energy=                    0.379440
 Thermal correction to Enthalpy=                  0.380385
 Thermal correction to Gibbs Free Energy=         0.313897
 Sum of electronic and zero-point Energies=          -1297.357277
 Sum of electronic and thermal Energies=             -1297.338636
 Sum of electronic and thermal Enthalpies=           -1297.337691
 Sum of electronic and thermal Free Energies=        -1297.404179

                     E (Thermal)             CV                S
                      KCal/Mol        Cal/Mol-Kelvin    Cal/Mol-Kelvin
 Total                  238.102             75.937            139.935
 Electronic               0.000              0.000              0.000
 Translational            0.889              2.981             43.384
 Rotational               0.889              2.981             35.131
 Vibrational            236.325             69.975             61.420
 Vibration     1          0.593              1.985              6.285
 Vibration     2          0.596              1.976              4.674
 Vibration     3          0.598              1.968              4.145
 Vibration     4          0.600              1.963              3.888
 Vibration     5          0.602              1.955              3.619
 Vibration     6          0.609              1.934              3.118
 Vibration     7          0.623              1.887              2.510
 Vibration     8          0.632              1.858              2.259
 Vibration     9          0.638              1.840              2.132
 Vibration    10          0.650              1.801              1.909
 Vibration    11          0.669              1.744              1.656
 Vibration    12          0.679              1.713              1.542
 Vibration    13          0.683              1.700              1.500
 Vibration    14          0.691              1.679              1.432
 Vibration    15          0.696              1.662              1.384
 Vibration    16          0.698              1.658              1.372
 Vibration    17          0.713              1.615              1.258
 Vibration    18          0.716              1.607              1.240
 Vibration    19          0.727              1.576              1.167
 Vibration    20          0.756              1.497              1.010
 Vibration    21          0.765              1.473              0.968
 Vibration    22          0.775              1.446              0.922
 Vibration    23          0.783              1.425              0.890
 Vibration    24          0.805              1.369              0.807
 Vibration    25          0.842              1.282              0.695
 Vibration    26          0.846              1.272              0.683
 Vibration    27          0.861              1.238              0.644
 Vibration    28          0.896              1.159              0.563
 Vibration    29          0.922              1.105              0.513
 Vibration    30          0.942              1.064              0.477
 Vibration    31          0.961              1.026              0.445
 Vibration    32          0.964              1.021              0.441

 Normal termination of Gaussian 09 at Fri Feb 12 15:28:53 2016.
