 Gaussian 09, Revision B.01,
 Gaussian 09:  EM64L-G09RevB.01 12-Aug-2010

 ------------------------------------------------
 # freq=raman b3lyp/6-31+g(d,p) geom=connectivity
 ------------------------------------------------

 ------------
 500 7000.com
 ------------
 Symbolic Z-matrix:
 Charge =  0 Multiplicity = 1

                         Standard orientation:
 ---------------------------------------------------------------------
 Center     Atomic      Atomic             Coordinates (Angstroms)
 Number     Number       Type             X           Y           Z
 ---------------------------------------------------------------------
      1          8           0        5.049480   -0.578761   -0.477979
      2          6           0        3.828969   -0.150443    0.142549
      3          6           0        3.383594    1.238050   -0.288497
      4          8           0        4.419926    2.097766    0.208159
      5          1           0        5.348912    1.783723    0.011952
      6          6           0        2.007618    1.600458    0.247791
      7          8           0        1.832013    3.019483    0.121084
      8          1           0        2.747994    3.382054    0.291713
      9          6           0        3.039140   -2.547921   -0.111475
     10          8           0        2.224652   -3.599058   -0.650136
     11          1           0        2.576305   -4.527863   -0.528401
     12          6           0        2.729970   -1.078837   -0.349393
     13          8           0        1.470873   -0.773747    0.267287
     14          6           0        1.016637    0.521002   -0.153431
     15          8           0       -0.059938    0.622742    0.790064
     16          6           0       -1.270327    0.210836    0.138312
     17          6           0       -1.972419   -1.062441    0.580685
     18          8           0       -1.129621   -2.106415    1.087695
     19          1           0       -0.156776   -1.970639    0.900605
     20          6           0       -3.161941   -1.460459   -0.278859
     21          8           0       -3.377503   -2.811052    0.153430
     22          1           0       -2.421822   -3.074630    0.285758
     23          6           0       -2.066639    2.570506   -0.471365
     24          8           0       -3.009509    3.540004    0.008295
     25          1           0       -2.944280    4.361680   -0.559494
     26          6           0       -2.402417    1.224279    0.150234
     27          8           0       -3.598927    0.749845   -0.484442
     28          6           0       -4.237364   -0.429761    0.026486
     29          8           0       -5.476027   -0.629652   -0.670048
     30          1           0       -6.208329   -0.514983   -0.059979
     31          1           0       -4.398629   -0.347408    1.081054
     32          1           0       -2.898124   -1.434565   -1.315503
     33          1           0       -2.459983   -0.736524    1.475648
     34          1           0       -1.009296    0.064225   -0.888950
     35          1           0       -2.643589    1.406007    1.176739
     36          1           0       -1.076260    2.860748   -0.188862
     37          1           0       -2.131633    2.501429   -1.537153
     38          1           0        5.753492   -0.589880    0.174588
     39          1           0        3.059984   -2.689020    0.948976
     40          1           0        4.032666   -2.714465   -0.472127
     41          1           0        2.624350   -0.931760   -1.403961
     42          1           0        3.911903   -0.202871    1.208041
     43          1           0        3.368156    1.286676   -1.357280
     44          1           0        2.093349    1.463825    1.305563
     45          1           0        0.699340    0.563386   -1.174423
 ---------------------------------------------------------------------

 SCF Done:  E(RB3LYP) =  -1297.89219637     A.U. after   13 cycles

 The electronic state is 1-A.
 Alpha  occ. eigenvalues --  -19.21012 -19.20877 -19.19766 -19.19504 -19.18228
 Alpha  occ. eigenvalues --  -19.17462 -19.16988 -19.16822 -19.16317 -19.15684
 Alpha  occ. eigenvalues --  -19.13675 -10.33112 -10.29737 -10.28151 -10.27530
 Alpha  occ. eigenvalues --  -10.27351 -10.27157 -10.25495 -10.25361 -10.24745
 Alpha  occ. eigenvalues --  -10.24174 -10.23558 -10.23134  -1.11897  -1.08574
 Alpha  occ. eigenvalues --   -1.07013  -1.06105  -1.04781  -1.03672  -1.03421
 Alpha  occ. eigenvalues --   -1.02775  -1.01918  -1.00708  -0.99494  -0.83371
 Alpha  occ. eigenvalues --   -0.82521  -0.79359  -0.78150  -0.72765  -0.69583
 Alpha  occ. eigenvalues --   -0.68221  -0.65140  -0.64799  -0.63246  -0.61240
 Alpha  occ. eigenvalues --   -0.61051  -0.58127  -0.56616  -0.55953  -0.54666
 Alpha  occ. eigenvalues --   -0.54310  -0.53989  -0.52781  -0.52526  -0.51661
 Alpha  occ. eigenvalues --   -0.51611  -0.49978  -0.48462  -0.47998  -0.47513
 Alpha  occ. eigenvalues --   -0.46870  -0.45508  -0.44673  -0.44471  -0.43660
 Alpha  occ. eigenvalues --   -0.43414  -0.42315  -0.41787  -0.40480  -0.40239
 Alpha  occ. eigenvalues --   -0.39091  -0.37884  -0.37614  -0.37033  -0.36547
 Alpha  occ. eigenvalues --   -0.35618  -0.34840  -0.34332  -0.34067  -0.33570
 Alpha  occ. eigenvalues --   -0.33240  -0.32609  -0.30661  -0.30177  -0.29627
 Alpha  occ. eigenvalues --   -0.29540  -0.29167  -0.28991  -0.27478  -0.26936
 Alpha  occ. eigenvalues --   -0.25747
 Alpha virt. eigenvalues --   -0.04347  -0.02081  -0.01027  -0.00249   0.00193
 Alpha virt. eigenvalues --    0.00425   0.01236   0.01870   0.02145   0.03137
 Alpha virt. eigenvalues --    0.03663   0.04028   0.04731   0.05624   0.05741

 Mulliken atomic charges:
              1
     1  O   -0.555439
     2  C   -0.260647
     3  C   -0.048480
     4  O   -0.566587
     5  H    0.368883
     6  C   -0.078478
     7  O   -0.491609
     8  H    0.383915
     9  C   -0.171352
    10  O   -0.567189
    11  H    0.365214
    12  C    0.270878
    13  O   -0.436359
    14  C    0.552808
    15  O   -0.231359
    16  C    0.345830
    17  C   -0.075078
    18  O   -0.588736
    19  H    0.419218
    20  C   -0.010143
    21  O   -0.460852
    22  H    0.369503
    23  C    0.046115
    24  O   -0.518588
    25  H    0.342988
    26  C   -0.469064
    27  O   -0.301144
    28  C    0.249418
    29  O   -0.497438
    30  H    0.348231
    31  H    0.114812
    32  H    0.137082
    33  H    0.110890
    34  H    0.091972
    35  H    0.141722
    36  H    0.155436
    37  H    0.135053
    38  H    0.366171
    39  H    0.129530
    40  H    0.153213
    41  H    0.135984
    42  H    0.153621
    43  H    0.151645
    44  H    0.154585
    45  H    0.133830
 Sum of Mulliken atomic charges =   0.00000

 Dipole moment (field-independent basis, Debye):
    X=              9.2585    Y=              0.7212    Z=              0.2100  Tot=              9.2889
 Quadrupole moment (field-independent basis, Debye-Ang):
   XX=           -116.9175   YY=           -142.5487   ZZ=           -141.5090
   XY=            -15.9052   XZ=             -0.6795   YZ=             -7.0413

  Exact polarizability: 221.361   2.110 196.712   1.339  -1.311 141.509
 Approx polarizability: 263.635   1.503 251.910   0.820  -1.821 231.395

 ******    7 imaginary frequencies (negative Signs) ******

                     1                      2                      3
                     A                      A                      A
 Frequencies --  -336.4309              -308.6805              -217.0182
 Red. masses --     1.1112                 1.7435                 1.2449
 Frc consts  --     0.0741                 0.0979                 0.0345
 IR Inten    --   101.8109                 8.0216               130.9495
 Raman Activ --     0.8445                 0.0447                 0.9042

                     4                      5                      6
                     A                      A                      A
 Frequencies --  -186.1744               -85.1271               -58.8339
 Red. masses --     2.0653                 6.5855                 6.3140
 Frc consts  --     0.0422                 0.0281                 0.0129
 IR Inten    --     4.5736                 0.6937                 0.0819
 Raman Activ --     0.0649                 0.0704                 0.0464

                     7                      8                      9
                     A                      A                      A
 Frequencies --   -37.1219                10.2729                33.3732
 Red. masses --     6.4823                 6.4555                 6.7215
 Frc consts  --     0.0053                 0.0004                 0.0044
 IR Inten    --     0.2147                 2.1728                 1.1500
 Raman Activ --     0.0417                 0.1627                 0.0360

                    10                     11                     12
                     A                      A                      A
 Frequencies --    69.3115                86.2360               105.0310
 Red. masses --     6.8651                 6.4835                 5.9760
 Frc consts  --     0.0194                 0.0284                 0.0388
 IR Inten    --     0.1506                 0.6043                 1.3859
 Raman Activ --     0.0309                 0.0131                 0.3708

                    13                     14                     15
                     A                      A                      A
 Frequencies --   144.4916               159.8574               178.2582
 Red. masses --     6.8337                 5.5920                 5.7052
 Frc consts  --     0.0841                 0.0842                 0.1068
 IR Inten    --     1.4103                 3.3494                 2.7445
 Raman Activ --     0.3713                 0.4829                 0.2878

                    16                     17                     18
                     A                      A                      A
 Frequencies --   189.6838               225.5243               261.1795
 Red. masses --     5.2271                 6.1069                 4.8402
 Frc consts  --     0.1108                 0.1830                 0.1945
 IR Inten    --     3.7890                 0.7074                 0.9343
 Raman Activ --     0.9740                 1.8448                 0.1435

                    19                     20                     21
                     A                      A                      A
 Frequencies --   266.7976               282.4832               287.8754
 Red. masses --     4.5056                 5.0960                 5.8951
 Frc consts  --     0.1890                 0.2396                 0.2878
 IR Inten    --     8.1376                 1.4447                 2.0390
 Raman Activ --     0.2283                 0.3150                 0.7796

                    22                     23                     24
                     A                      A                      A
 Frequencies --   309.9411               326.5988               336.6790
 Red. masses --     5.0106                 5.3664                 5.8278
 Frc consts  --     0.2836                 0.3373                 0.3892
 IR Inten    --     9.6138                 2.2699                10.0791
 Raman Activ --     2.0162                 1.2021                 4.0945

                    25                     26                     27
                     A                      A                      A
 Frequencies --   356.8425               374.2675               385.2447
 Red. masses --     5.2738                 5.9989                 5.4905
 Frc consts  --     0.3957                 0.4951                 0.4801
 IR Inten    --     2.1285                 4.1174                 6.6370
 Raman Activ --     3.0221                 0.8499                 1.2265

                    28                     29                     30
                     A                      A                      A
 Frequencies --   417.9159               421.1056               435.4783
 Red. masses --     5.7090                 4.5130                 5.3341
 Frc consts  --     0.5875                 0.4715                 0.5960
 IR Inten    --     6.2694                10.2208                 0.3973
 Raman Activ --     3.0392                 6.0774                 1.6879

                    31                     32                     33
                     A                      A                      A
 Frequencies --   437.5272               482.2289               497.2336
 Red. masses --     4.2862                 4.7821                 3.9368
 Frc consts  --     0.4834                 0.6552                 0.5735
 IR Inten    --     5.2673                 7.4546                 7.3081
 Raman Activ --     1.0816                 1.3260                 0.8975

                    34                     35                     36
                     A                      A                      A
 Frequencies --   529.7967               542.7555               557.4288
 Red. masses --     4.2049                 3.7808                 6.4235
 Frc consts  --     0.6954                 0.6562                 1.1760
 IR Inten    --    12.0812                 5.2701                 6.7498
 Raman Activ --     7.7987                 0.7252                 3.4291

                    37                     38                     39
                     A                      A                      A
 Frequencies --   591.9790               602.0526               620.2399
 Red. masses --     3.2401                 1.3405                 2.2333
 Frc consts  --     0.6690                 0.2863                 0.5062
 IR Inten    --    18.4580               110.3564                68.8035
 Raman Activ --     0.4670                 2.4561                 1.0634

                    40                     41                     42
                     A                      A                      A
 Frequencies --   624.7209               661.8005               664.0943
 Red. masses --     2.4151                 2.8587                 1.9136
 Frc consts  --     0.5553                 0.7377                 0.4972
 IR Inten    --    17.5161                31.5321                16.2525
 Raman Activ --     0.3022                 0.8269                 1.0440

                    43                     44                     45
                     A                      A                      A
 Frequencies --   674.4975               683.6045               693.7570
 Red. masses --     1.1843                 1.7226                 1.0809
 Frc consts  --     0.3175                 0.4743                 0.3065
 IR Inten    --   107.0165                40.9896               117.6907
 Raman Activ --     1.4189                 1.1043                 2.3110

                    46                     47                     48
                     A                      A                      A
 Frequencies --   710.9802               801.5231               842.9336
 Red. masses --     1.0678                 1.1008                 2.6681
 Frc consts  --     0.3180                 0.4167                 1.1170
 IR Inten    --    39.6561               146.9281                 7.2162
 Raman Activ --     0.5258                 1.1315                 4.1774

                    49                     50                     51
                     A                      A                      A
 Frequencies --   846.7502               935.2244               953.3866
 Red. masses --     2.6335                 6.1603                 6.3400
 Frc consts  --     1.1125                 3.1746                 3.3953
 IR Inten    --    13.9972               144.7690               207.6887
 Raman Activ --     4.8773                 0.8364                 0.7842

                    52                     53                     54
                     A                      A                      A
 Frequencies --   981.4869               989.2377              1000.9116
 Red. masses --     4.7110                 4.6591                 3.7999
 Frc consts  --     2.6738                 2.6863                 2.2429
 IR Inten    --     9.2982               174.0129                54.9264
 Raman Activ --     3.8144                 1.1047                 1.7970

                    55                     56                     57
                     A                      A                      A
 Frequencies --  1005.5731              1014.0501              1033.9508
 Red. masses --     4.3318                 4.7937                 2.9289
 Frc consts  --     2.5807                 2.9043                 1.8448
 IR Inten    --    96.2501                56.4203               208.9007
 Raman Activ --     3.7859                 0.5362                 1.9722

                    58                     59                     60
                     A                      A                      A
 Frequencies --  1046.7954              1048.2359              1061.9516
 Red. masses --     5.3870                 2.5398                 4.6935
 Frc consts  --     3.4779                 1.6442                 3.1186
 IR Inten    --   164.2273                43.1991                55.3436
 Raman Activ --     3.2451                 5.9044                21.3054

                    61                     62                     63
                     A                      A                      A
 Frequencies --  1065.5818              1081.3801              1091.3697
 Red. masses --     4.6743                 4.5586                 2.5785
 Frc consts  --     3.1271                 3.1408                 1.8095
 IR Inten    --    64.2438               309.3622                 7.0914
 Raman Activ --     3.4816                 2.2866                 3.1677

                    64                     65                     66
                     A                      A                      A
 Frequencies --  1094.5148              1104.9249              1110.4932
 Red. masses --     3.8154                 3.0609                 2.8714
 Frc consts  --     2.6930                 2.2018                 2.0863
 IR Inten    --    66.2116                22.6959                38.7886
 Raman Activ --     1.3670                12.7923                 8.4831

                    67                     68                     69
                     A                      A                      A
 Frequencies --  1118.5152              1133.8366              1143.8618
 Red. masses --     2.6545                 2.5334                 1.5471
 Frc consts  --     1.9566                 1.9189                 1.1926
 IR Inten    --    23.3360                29.1336                 0.9330
 Raman Activ --     3.4916                 3.4251                 2.4398

                    70                     71                     72
                     A                      A                      A
 Frequencies --  1150.0909              1154.9473              1157.8006
 Red. masses --     2.1241                 1.8418                 2.0210
 Frc consts  --     1.6553                 1.4475                 1.5962
 IR Inten    --    53.6644                 2.4435                29.0793
 Raman Activ --     3.0678                 1.2985                 6.5659

                    73                     74                     75
                     A                      A                      A
 Frequencies --  1170.6823              1182.4972              1195.0232
 Red. masses --     1.8694                 2.7909                 1.5294
 Frc consts  --     1.5095                 2.2993                 1.2868
 IR Inten    --    36.0961                23.2934                 4.7102
 Raman Activ --     2.4216                 2.3834                 1.1554

                    76                     77                     78
                     A                      A                      A
 Frequencies --  1205.9012              1218.8527              1226.8289
 Red. masses --     1.5877                 3.1488                 1.2365
 Frc consts  --     1.3603                 2.7561                 1.0965
 IR Inten    --     1.5353                16.5526                18.5746
 Raman Activ --     3.1299                 2.0752                 5.7026

                    79                     80                     81
                     A                      A                      A
 Frequencies --  1242.1169              1245.5237              1253.1269
 Red. masses --     1.3194                 1.2462                 1.4100
 Frc consts  --     1.1994                 1.1390                 1.3046
 IR Inten    --    13.2014                 2.7057                 8.0708
 Raman Activ --     1.1708                 3.3885                 1.2622

                    82                     83                     84
                     A                      A                      A
 Frequencies --  1270.9644              1274.8730              1285.1513
 Red. masses --     1.4032                 1.1681                 1.2519
 Frc consts  --     1.3355                 1.1186                 1.2182
 IR Inten    --    45.8915                18.6222                41.6337
 Raman Activ --     4.1393                 5.5961                 5.3540

                    85                     86                     87
                     A                      A                      A
 Frequencies --  1297.9892              1305.3793              1307.0077
 Red. masses --     1.2854                 1.2911                 1.2617
 Frc consts  --     1.2759                 1.2962                 1.2699
 IR Inten    --    31.4354                 0.3112                19.1066
 Raman Activ --     3.6673                 3.4441                 3.0358

                    88                     89                     90
                     A                      A                      A
 Frequencies --  1322.3194              1325.6552              1330.8051
 Red. masses --     1.3504                 1.3969                 1.3098
 Frc consts  --     1.3912                 1.4463                 1.3667
 IR Inten    --     8.6057                43.5655                 3.9488
 Raman Activ --     1.6897                 5.8721                 1.8392

                    91                     92                     93
                     A                      A                      A
 Frequencies --  1338.9883              1349.9503              1355.6215
 Red. masses --     1.2539                 1.6040                 1.4822
 Frc consts  --     1.3246                 1.7223                 1.6049
 IR Inten    --    11.3073                 7.3438                39.1240
 Raman Activ --     3.0907                 7.4035                 5.3001

                    94                     95                     96
                     A                      A                      A
 Frequencies --  1356.1212              1369.2208              1389.4196
 Red. masses --     1.4265                 1.3085                 1.4904
 Frc consts  --     1.5457                 1.4454                 1.6952
 IR Inten    --    26.5088                13.1190                14.3023
 Raman Activ --     1.8818                 2.1344                 7.1329

                    97                     98                     99
                     A                      A                      A
 Frequencies --  1393.0654              1399.0263              1415.1187
 Red. masses --     1.4119                 1.2381                 1.3918
 Frc consts  --     1.6144                 1.4277                 1.6422
 IR Inten    --    40.1752                 7.8751                52.0455
 Raman Activ --     6.2804                 1.7870                 2.7457

                   100                    101                    102
                     A                      A                      A
 Frequencies --  1435.3245              1444.7437              1470.8657
 Red. masses --     1.4137                 1.4677                 1.0779
 Frc consts  --     1.7160                 1.8049                 1.3740
 IR Inten    --     2.9777                14.9594                 6.4308
 Raman Activ --     0.1417                 0.9234                 3.4575

                   103                    104                    105
                     A                      A                      A
 Frequencies --  1474.1269              1478.0937              1490.9655
 Red. masses --     1.0712                 1.1187                 1.0765
 Frc consts  --     1.3715                 1.4400                 1.4099
 IR Inten    --     5.0653                 4.1294                 3.7037
 Raman Activ --     5.4365                13.9924                 1.2180

                   106                    107                    108
                     A                      A                      A
 Frequencies --  1497.3896              1582.9575              3249.2828
 Red. masses --     1.3733                 1.1911                 1.0806
 Frc consts  --     1.8141                 1.7585                 6.7216
 IR Inten    --    84.2513                96.6464                17.5425
 Raman Activ --     3.5119                 1.9742                50.6166

                   109                    110                    111
                     A                      A                      A
 Frequencies --  3266.9861              3268.5719              3273.8668
 Red. masses --     1.0832                 1.0612                 1.0567
 Frc consts  --     6.8119                 6.6795                 6.6728
 IR Inten    --     8.2385                33.4681                23.4519
 Raman Activ --    15.0611                94.7792               107.2921

                   112                    113                    114
                     A                      A                      A
 Frequencies --  3278.3266              3287.7090              3291.8489
 Red. masses --     1.0821                 1.0828                 1.0839
 Frc consts  --     6.8521                 6.8959                 6.9203
 IR Inten    --     9.3380                 3.4613                27.2320
 Raman Activ --    90.9809                34.1610                44.7484

                   115                    116                    117
                     A                      A                      A
 Frequencies --  3294.8799              3297.9242              3304.7944
 Red. masses --     1.0829                 1.0843                 1.0829
 Frc consts  --     6.9268                 6.9482                 6.9685
 IR Inten    --    25.9497                 7.2173                83.7280
 Raman Activ --   140.9084                50.2474                23.2687

                   118                    119                    120
                     A                      A                      A
 Frequencies --  3312.8920              3313.5117              3317.4086
 Red. masses --     1.0849                 1.0734                 1.0913
 Frc consts  --     7.0153                 6.9437                 7.0758
 IR Inten    --    35.0523               210.3996                27.6636
 Raman Activ --    98.5439                37.8773                10.4641

                   121                    122                    123
                     A                      A                      A
 Frequencies --  3323.3576              3336.5867              3378.6520
 Red. masses --     1.0988                 1.1092                 1.0664
 Frc consts  --     7.1502                 7.2755                 7.1720
 IR Inten    --    62.5111                23.8626               126.5597
 Raman Activ --    39.4188                49.1586                79.7771

                   124                    125                    126
                     A                      A                      A
 Frequencies --  3378.9683              3380.8279              3383.4056
 Red. masses --     1.0670                 1.0679                 1.0685
 Frc consts  --     7.1774                 7.1919                 7.2064
 IR Inten    --    81.1806               136.6535                74.3979
 Raman Activ --   229.6348               107.6823               172.8279

                   127                    128                    129
                     A                      A                      A
 Frequencies --  3390.5205              3915.5630              3921.6053
 Red. masses --     1.0668                 1.0678                 1.0676
 Frc consts  --     7.2255                 9.6452                 9.6740
 IR Inten    --    42.6980                66.9523                78.2900
 Raman Activ --   106.4084               103.5116               129.3527

 - Thermochemistry -
 -------------------
 Temperature   298.150 Kelvin.  Pressure   1.00000 Atm.
 Atom     1 has atomic number  8 and mass  15.99491

 Molecular mass:   342.11621 amu.
 Principal axes and moments of inertia in atomic units:
                           1         2         3
     Eigenvalues --  4765.78119********************
           X            0.99996  -0.00859  -0.00068
           Y            0.00859   0.99995  -0.00411
           Z            0.00071   0.00410   0.99999
 This molecule is an asymmetric top.
 Rotational symmetry number  1.
 Warning -- assumption of classical behavior for rotation
           may cause significant error
 Rotational temperatures (Kelvin)      0.01817     0.00725     0.00538
 Rotational constants (GHZ):           0.37869     0.15101     0.11206
    7 imaginary frequencies ignored.
 Zero-point vibrational energy     976617.3 (Joules/Mol)
                                  233.41713 (Kcal/Mol)
 Warning -- explicit consideration of  32 degrees of freedom as
           vibrations may cause significant error
 Vibrational temperatures:     14.78    48.02    99.72   124.07   151.12
          (Kelvin)            207.89   230.00   256.47   272.91   324.48
                              375.78   383.86   406.43   414.19   445.94
                              469.90   484.41   513.42   538.49   554.28
                              601.29   605.88   626.56   629.50   693.82
                              715.41   762.26   780.90   802.01   851.72
                              866.22   892.39   898.83   952.18   955.48
                              970.45   983.55   998.16  1022.94  1153.21
                             1212.79  1218.28  1345.58  1371.71  1412.14
                             1423.29  1440.09  1446.79  1458.99  1487.62
                             1506.10  1508.18  1527.91  1533.13  1555.86
                             1570.24  1574.76  1589.74  1597.75  1609.29
                             1631.34  1645.76  1654.72  1661.71  1665.81
                             1684.35  1701.35  1719.37  1735.02  1753.65
                             1765.13  1787.13  1792.03  1802.97  1828.63
                             1834.26  1849.04  1867.51  1878.15  1880.49
                             1902.52  1907.32  1914.73  1926.50  1942.27
                             1950.43  1951.15  1970.00  1999.06  2004.31
                             2012.88  2036.04  2065.11  2078.66  2116.25
                             2120.94  2126.64  2145.16  2154.41  2277.52
                             4674.99  4700.46  4702.74  4710.36  4716.77
                             4730.27  4736.23  4740.59  4744.97  4754.86
                             4766.51  4767.40  4773.01  4781.56  4800.60
                             4861.12  4861.58  4864.25  4867.96  4878.20
                             5633.61  5642.31

 Zero-point correction=                           0.371974 (Hartree/Particle)
 Thermal correction to Energy=                    0.390623
 Thermal correction to Enthalpy=                  0.391567
 Thermal correction to Gibbs Free Energy=         0.324136
 Sum of electronic and zero-point Energies=          -1297.520222
 Sum of electronic and thermal Energies=             -1297.501573
 Sum of electronic and thermal Enthalpies=           -1297.500629
 Sum of electronic and thermal Free Energies=        -1297.568061

                     E (Thermal)             CV                S
                      KCal/Mol        Cal/Mol-Kelvin    Cal/Mol-Kelvin
 Total                  245.120             76.228            141.922
 Electronic               0.000              0.000              0.000
 Translational            0.889              2.981             43.384
 Rotational               0.889              2.981             35.171
 Vibrational            243.342             70.266             63.366
 Vibration     1          0.593              1.987              7.958
 Vibration     2          0.594              1.983              5.618
 Vibration     3          0.598              1.969              4.173
 Vibration     4          0.601              1.959              3.744
 Vibration     5          0.605              1.945              3.359
 Vibration     6          0.616              1.909              2.744
 Vibration     7          0.622              1.892              2.551
 Vibration     8          0.629              1.869              2.347
 Vibration     9          0.633              1.854              2.231
 Vibration    10          0.650              1.802              1.914
 Vibration    11          0.669              1.744              1.654
 Vibration    12          0.672              1.734              1.617
 Vibration    13          0.682              1.706              1.519
 Vibration    14          0.685              1.696              1.486
 Vibration    15          0.699              1.655              1.363
 Vibration    16          0.710              1.622              1.277
 Vibration    17          0.717              1.602              1.228
 Vibration    18          0.732              1.561              1.136
 Vibration    19          0.745              1.525              1.062
 Vibration    20          0.754              1.502              1.019
 Vibration    21          0.781              1.431              0.899
 Vibration    22          0.784              1.424              0.888
 Vibration    23          0.796              1.393              0.841
 Vibration    24          0.798              1.388              0.834
 Vibration    25          0.838              1.289              0.704
 Vibration    26          0.853              1.256              0.665
 Vibration    27          0.885              1.184              0.588
 Vibration    28          0.898              1.156              0.559
 Vibration    29          0.913              1.123              0.529
 Vibration    30          0.949              1.049              0.464
 Vibration    31          0.960              1.027              0.446
 Vibration    32          0.980              0.989              0.416

 Normal termination of Gaussian 09 at Tue Mar  1 16:31:17 2016.
