 Gaussian 09, Revision B.01,
 Gaussian 09:  EM64L-G09RevB.01 12-Aug-2010

 -------------------------------------------------
 # freq=raman b3lyp/6-31+g(2d,p) geom=connectivity
 -------------------------------------------------

 -----------------
 493 8238/8238.com
 -----------------
 Symbolic Z-matrix:
 Charge =  0 Multiplicity = 1

                         Standard orientation:
 ---------------------------------------------------------------------
 Center     Atomic      Atomic             Coordinates (Angstroms)
 Number     Number       Type             X           Y           Z
 ---------------------------------------------------------------------
      1          8           0        5.004468   -0.447826   -0.160864
      2          6           0        3.659687   -0.144536    0.235117
      3          6           0        3.281725    1.230887   -0.290131
      4          8           0        4.205971    2.231674    0.161566
      5          1           0        5.148941    1.926753    0.025760
      6          6           0        1.871683    1.558067    0.172807
      7          8           0        1.391517    2.839779   -0.260668
      8          1           0        0.424235    2.857533   -0.010084
      9          6           0        2.970355   -2.576697    0.161115
     10          8           0        4.216334   -3.214895   -0.153793
     11          1           0        4.038857   -4.173067    0.072355
     12          6           0        2.685213   -1.166088   -0.328589
     13          8           0        1.366531   -0.841349    0.133669
     14          6           0        0.920061    0.460022   -0.272528
     15          8           0       -0.311345    0.554816    0.457308
     16          6           0       -1.583759    0.275095   -0.145494
     17          6           0       -1.980484   -1.119826    0.306933
     18          8           0       -1.007011   -2.097079   -0.091112
     19          1           0       -0.145602   -1.714486    0.243262
     20          6           0       -3.336796   -1.499250   -0.267048
     21          8           0       -3.816606   -2.773690    0.185714
     22          1           0       -4.740244   -2.859164   -0.186140
     23          6           0       -2.330453    2.631656   -0.199857
     24          8           0       -1.135070    3.366800    0.097936
     25          1           0       -1.366459    4.313777    0.322920
     26          6           0       -2.605066    1.260854    0.398557
     27          8           0       -3.898559    0.807270   -0.025144
     28          6           0       -4.335808   -0.515028    0.320519
     29          8           0       -5.478578   -0.628935   -0.539146
     30          1           0       -6.259398   -0.810784   -0.011082
     31          1           0       -4.549879   -0.656610    1.359282
     32          1           0       -3.332020   -1.446967   -1.335759
     33          1           0       -2.049616   -1.123981    1.374690
     34          1           0       -1.524617    0.331059   -1.212392
     35          1           0       -2.553973    1.301271    1.466572
     36          1           0       -3.153214    3.257851    0.075539
     37          1           0       -2.363052    2.515225   -1.263004
     38          1           0        2.190673   -3.204695   -0.216531
     39          1           0        2.884244   -2.563170    1.227558
     40          1           0        5.522654   -0.675790    0.614452
     41          1           0        2.711024   -1.140971   -1.397983
     42          1           0        3.595973   -0.145829    1.303217
     43          1           0        3.296197    1.206913   -1.359764
     44          1           0        1.878865    1.563888    1.242767
     45          1           0        0.747054    0.497798   -1.327773
 ---------------------------------------------------------------------

 SCF Done:  E(RB3LYP) =  -1297.99315265     A.U. after   13 cycles

 The electronic state is 1-A.
 Alpha  occ. eigenvalues --  -19.19140 -19.18428 -19.18050 -19.17582 -19.17293
 Alpha  occ. eigenvalues --  -19.16470 -19.16284 -19.15689 -19.14685 -19.13287
 Alpha  occ. eigenvalues --  -19.12846 -10.30556 -10.30537 -10.26069 -10.25473
 Alpha  occ. eigenvalues --  -10.25425 -10.25304 -10.24703 -10.24124 -10.23944
 Alpha  occ. eigenvalues --  -10.23917 -10.23813 -10.23695  -1.10176  -1.09248
 Alpha  occ. eigenvalues --   -1.05820  -1.04942  -1.03800  -1.03219  -1.02806
 Alpha  occ. eigenvalues --   -1.02245  -1.01383  -1.00223  -0.99547  -0.82322
 Alpha  occ. eigenvalues --   -0.80302  -0.79362  -0.78059  -0.71810  -0.69638
 Alpha  occ. eigenvalues --   -0.67119  -0.64211  -0.63122  -0.62295  -0.61364
 Alpha  occ. eigenvalues --   -0.60396  -0.56482  -0.56145  -0.55186  -0.54363
 Alpha  occ. eigenvalues --   -0.53809  -0.53125  -0.52705  -0.51690  -0.51059
 Alpha  occ. eigenvalues --   -0.50551  -0.49760  -0.49059  -0.48509  -0.46671
 Alpha  occ. eigenvalues --   -0.46359  -0.45103  -0.44016  -0.43431  -0.42962
 Alpha  occ. eigenvalues --   -0.42583  -0.41660  -0.40742  -0.40474  -0.39228
 Alpha  occ. eigenvalues --   -0.39161  -0.37891  -0.37423  -0.36287  -0.35721
 Alpha  occ. eigenvalues --   -0.35092  -0.34396  -0.34011  -0.33713  -0.33529
 Alpha  occ. eigenvalues --   -0.33053  -0.31513  -0.30833  -0.30052  -0.29641
 Alpha  occ. eigenvalues --   -0.29351  -0.28564  -0.27706  -0.27039  -0.26358
 Alpha  occ. eigenvalues --   -0.26216
 Alpha virt. eigenvalues --   -0.02187  -0.01812  -0.01719  -0.00018   0.00243
 Alpha virt. eigenvalues --    0.01155   0.02012   0.02096   0.03069   0.03427
 Alpha virt. eigenvalues --    0.03885   0.04183   0.04886   0.05554   0.05665

 Mulliken atomic charges:
              1
     1  O   -0.549802
     2  C   -0.025197
     3  C    0.216868
     4  O   -0.562982
     5  H    0.345639
     6  C   -0.043508
     7  O   -0.583912
     8  H    0.428222
     9  C   -0.243096
    10  O   -0.517795
    11  H    0.333288
    12  C    0.128209
    13  O   -0.215852
    14  C    0.104747
    15  O   -0.269509
    16  C    0.208238
    17  C    0.091120
    18  O   -0.563960
    19  H    0.389053
    20  C    0.050719
    21  O   -0.542703
    22  H    0.334624
    23  C   -0.317982
    24  O   -0.555669
    25  H    0.362299
    26  C    0.080481
    27  O   -0.243558
    28  C    0.186132
    29  O   -0.532746
    30  H    0.331134
    31  H    0.147135
    32  H    0.136422
    33  H    0.116482
    34  H    0.117664
    35  H    0.121863
    36  H    0.139859
    37  H    0.157741
    38  H    0.150300
    39  H    0.138484
    40  H    0.340813
    41  H    0.116229
    42  H    0.118880
    43  H    0.118064
    44  H    0.126138
    45  H    0.131422
 Sum of Mulliken atomic charges =   0.00000

 Dipole moment (field-independent basis, Debye):
    X=             -3.3010    Y=             -0.0006    Z=              2.5370  Tot=              4.1632
 Quadrupole moment (field-independent basis, Debye-Ang):
   XX=           -120.0996   YY=           -138.9164   ZZ=           -135.2808
   XY=            -16.2563   XZ=              0.6237   YZ=             -0.2375

  Exact polarizability: 234.085   2.210 197.576   0.729  -0.527 143.139
 Approx polarizability: 275.258   2.422 257.616   0.556  -0.500 238.579

 ******    7 imaginary frequencies (negative Signs) ******

                     1                      2                      3
                     A                      A                      A
 Frequencies --  -289.9038              -267.1984              -217.6273
 Red. masses --     1.7081                 1.7350                 1.1844
 Frc consts  --     0.0846                 0.0730                 0.0331
 IR Inten    --    15.2318                 0.8710                89.1592
 Raman Activ --     0.0727                 0.0143                 0.6671

                     4                      5                      6
                     A                      A                      A
 Frequencies --  -191.0327               -70.7021               -45.1003
 Red. masses --     1.1920                 7.1324                 6.4089
 Frc consts  --     0.0256                 0.0210                 0.0077
 IR Inten    --   106.0754                 1.0033                 0.5392
 Raman Activ --     0.9861                 0.0125                 0.0296

                     7                      8                      9
                     A                      A                      A
 Frequencies --   -28.7217                51.9890                64.1548
 Red. masses --     5.8870                 6.3186                 6.9839
 Frc consts  --     0.0029                 0.0101                 0.0169
 IR Inten    --     0.8639                 1.1451                 0.4187
 Raman Activ --     0.0371                 0.0434                 0.0960

                    10                     11                     12
                     A                      A                      A
 Frequencies --    82.8689                97.9702               116.1098
 Red. masses --     6.3493                 6.3693                 5.9182
 Frc consts  --     0.0257                 0.0360                 0.0470
 IR Inten    --     1.1831                 4.0209                 2.7451
 Raman Activ --     0.2930                 0.0341                 0.0491

                    13                     14                     15
                     A                      A                      A
 Frequencies --   154.8946               173.1592               187.5884
 Red. masses --     5.8718                 6.1465                 7.5913
 Frc consts  --     0.0830                 0.1086                 0.1574
 IR Inten    --     6.7271                 1.1758                 0.5962
 Raman Activ --     0.2232                 0.3894                 0.6228

                    16                     17                     18
                     A                      A                      A
 Frequencies --   213.1741               235.5365               273.6339
 Red. masses --     7.0930                 6.0485                 4.3769
 Frc consts  --     0.1899                 0.1977                 0.1931
 IR Inten    --     0.3682                 0.8651                15.4418
 Raman Activ --     3.3611                 0.1739                 0.3183

                    19                     20                     21
                     A                      A                      A
 Frequencies --   278.9926               295.9520               305.2476
 Red. masses --     4.7480                 4.9738                 6.4034
 Frc consts  --     0.2177                 0.2567                 0.3515
 IR Inten    --     3.6212                 1.0557                 6.1687
 Raman Activ --     0.3825                 0.1801                 3.1186

                    22                     23                     24
                     A                      A                      A
 Frequencies --   318.8167               321.7110               323.6898
 Red. masses --     4.8744                 6.2387                 5.9746
 Frc consts  --     0.2919                 0.3804                 0.3688
 IR Inten    --     4.4143                 1.3613                 4.8641
 Raman Activ --     1.5546                 2.2981                 1.4905

                    25                     26                     27
                     A                      A                      A
 Frequencies --   349.8276               366.0322               382.0600
 Red. masses --     6.6589                 4.4217                 6.3512
 Frc consts  --     0.4801                 0.3490                 0.5462
 IR Inten    --     8.5099                 3.4508                 3.7460
 Raman Activ --     1.7246                 0.1130                 0.9189

                    28                     29                     30
                     A                      A                      A
 Frequencies --   403.9190               430.7626               439.6073
 Red. masses --     4.2240                 6.3846                 4.8397
 Frc consts  --     0.4060                 0.6980                 0.5511
 IR Inten    --    18.5358                 0.5796                 4.3559
 Raman Activ --     2.3650                 6.7184                 0.4867

                    31                     32                     33
                     A                      A                      A
 Frequencies --   448.4351               475.1386               496.1435
 Red. masses --     5.2842                 4.4037                 4.6993
 Frc consts  --     0.6261                 0.5857                 0.6815
 IR Inten    --     3.0793                 2.1795                 5.6500
 Raman Activ --     1.8226                 5.2571                 0.5092

                    34                     35                     36
                     A                      A                      A
 Frequencies --   518.5121               528.2081               575.4999
 Red. masses --     3.5169                 3.0743                 3.6468
 Frc consts  --     0.5571                 0.5054                 0.7116
 IR Inten    --    14.7245                 5.7704                19.8626
 Raman Activ --     1.4562                 4.5435                 0.7377

                    37                     38                     39
                     A                      A                      A
 Frequencies --   599.1092               603.8221               628.4751
 Red. masses --     3.3711                 4.5571                 4.3259
 Frc consts  --     0.7129                 0.9789                 1.0067
 IR Inten    --    30.1707                12.5894                18.6232
 Raman Activ --     0.5337                 0.2528                 0.4658

                    40                     41                     42
                     A                      A                      A
 Frequencies --   635.4960               664.6185               697.9116
 Red. masses --     4.2478                 1.1329                 5.3018
 Frc consts  --     1.0107                 0.2948                 1.5215
 IR Inten    --    35.5726                93.7282                 9.0586
 Raman Activ --     2.5314                 1.5930                 0.8294

                    43                     44                     45
                     A                      A                      A
 Frequencies --   732.6720               747.0683               768.6070
 Red. masses --     1.0851                 1.0547                 1.0883
 Frc consts  --     0.3432                 0.3468                 0.3788
 IR Inten    --    82.9043               114.4882               100.2311
 Raman Activ --     1.5395                 1.8567                 1.5921

                    46                     47                     48
                     A                      A                      A
 Frequencies --   842.2290               845.6757               855.1139
 Red. masses --     1.2039                 1.2075                 1.7693
 Frc consts  --     0.5031                 0.5088                 0.7622
 IR Inten    --    65.1228                80.0457                 2.7876
 Raman Activ --     1.8699                 2.1819                 0.6174

                    49                     50                     51
                     A                      A                      A
 Frequencies --   868.5576               905.8249               932.2340
 Red. masses --     1.3259                 5.2880                 5.2123
 Frc consts  --     0.5893                 2.5564                 2.6689
 IR Inten    --    20.3851               149.8305                39.9884
 Raman Activ --     0.3191                 3.5877                 0.8758

                    52                     53                     54
                     A                      A                      A
 Frequencies --   976.8937               979.6944               985.3850
 Red. masses --     6.4149                 5.8762                 3.8603
 Frc consts  --     3.6069                 3.3230                 2.2084
 IR Inten    --     3.1284               213.4935                11.9117
 Raman Activ --     4.3752                 1.2425                 0.4352

                    55                     56                     57
                     A                      A                      A
 Frequencies --  1001.8885              1008.6026              1019.2890
 Red. masses --     5.3812                 6.0714                 6.2596
 Frc consts  --     3.1825                 3.6390                 3.8317
 IR Inten    --   326.8491                 8.2597               127.3646
 Raman Activ --     3.0359                 4.6425                 2.0058

                    58                     59                     60
                     A                      A                      A
 Frequencies --  1038.8560              1050.2497              1070.6353
 Red. masses --     5.6631                 2.8957                 3.4760
 Frc consts  --     3.6009                 1.8819                 2.3475
 IR Inten    --   407.2175                67.7798                 6.3459
 Raman Activ --     3.7776                 4.2466                 5.6089

                    61                     62                     63
                     A                      A                      A
 Frequencies --  1074.3819              1075.6379              1083.1908
 Red. masses --     4.6557                 3.0618                 3.4807
 Frc consts  --     3.1663                 2.0872                 2.4062
 IR Inten    --   106.4668                16.0470                35.5148
 Raman Activ --     1.7334                23.4776                 0.8343

                    64                     65                     66
                     A                      A                      A
 Frequencies --  1084.1758              1095.1457              1105.4339
 Red. masses --     4.1306                 2.6779                 2.2394
 Frc consts  --     2.8606                 1.8923                 1.6123
 IR Inten    --    73.7329               114.5076                27.6174
 Raman Activ --     8.9662                 8.0232                 2.9751

                    67                     68                     69
                     A                      A                      A
 Frequencies --  1108.4329              1124.1463              1127.6967
 Red. masses --     3.0119                 1.8692                 2.6543
 Frc consts  --     2.1803                 1.3917                 1.9887
 IR Inten    --    53.8984                 0.7788                71.9732
 Raman Activ --    10.3937                 5.3413                 7.8470

                    70                     71                     72
                     A                      A                      A
 Frequencies --  1133.0322              1139.0928              1145.2262
 Red. masses --     2.9144                 2.6414                 2.2542
 Frc consts  --     2.2043                 2.0193                 1.7419
 IR Inten    --    13.9590                19.5038                13.4352
 Raman Activ --     2.4540                 5.3217                 4.0599

                    73                     74                     75
                     A                      A                      A
 Frequencies --  1149.8997              1152.6822              1168.8860
 Red. masses --     2.0065                 1.9838                 1.6959
 Frc consts  --     1.5632                 1.5530                 1.3652
 IR Inten    --     6.4110                13.0751                16.3071
 Raman Activ --     1.8011                 3.4497                 2.0707

                    76                     77                     78
                     A                      A                      A
 Frequencies --  1188.9473              1203.0896              1206.2568
 Red. masses --     1.4759                 1.2495                 1.2652
 Frc consts  --     1.2292                 1.0655                 1.0847
 IR Inten    --    12.8270                25.8045                 4.1637
 Raman Activ --     4.0591                 2.1498                 1.1774

                    79                     80                     81
                     A                      A                      A
 Frequencies --  1223.1944              1229.2356              1243.4610
 Red. masses --     1.2471                 1.2654                 1.3212
 Frc consts  --     1.0993                 1.1265                 1.2036
 IR Inten    --     0.9863                 5.2239                19.3013
 Raman Activ --     1.5386                 1.4158                 0.8873

                    82                     83                     84
                     A                      A                      A
 Frequencies --  1265.1914              1269.4114              1272.8235
 Red. masses --     1.2069                 1.3281                 1.3485
 Frc consts  --     1.1382                 1.2610                 1.2872
 IR Inten    --    10.0273                37.9541                10.4152
 Raman Activ --     0.7932                 0.9428                 2.7249

                    85                     86                     87
                     A                      A                      A
 Frequencies --  1286.2786              1289.5356              1294.8101
 Red. masses --     1.2839                 1.3246                 1.3461
 Frc consts  --     1.2516                 1.2978                 1.3296
 IR Inten    --    11.0948                 0.8409                26.4564
 Raman Activ --     5.6228                 1.6748                 2.1144

                    88                     89                     90
                     A                      A                      A
 Frequencies --  1305.5060              1316.9122              1322.7437
 Red. masses --     1.1833                 1.3237                 1.2986
 Frc consts  --     1.1883                 1.3526                 1.3387
 IR Inten    --     7.4411                34.2149                11.7345
 Raman Activ --    10.2609                 4.1745                12.0881

                    91                     92                     93
                     A                      A                      A
 Frequencies --  1329.7165              1336.3233              1350.1315
 Red. masses --     1.2292                 1.2354                 1.4238
 Frc consts  --     1.2806                 1.2998                 1.5292
 IR Inten    --    40.5094                24.6676                11.5086
 Raman Activ --     1.9433                 2.5521                 9.7197

                    94                     95                     96
                     A                      A                      A
 Frequencies --  1352.2701              1358.7215              1371.1692
 Red. masses --     1.2464                 1.5488                 1.4981
 Frc consts  --     1.3429                 1.6847                 1.6595
 IR Inten    --    30.7894                 6.5269                13.9058
 Raman Activ --     5.3814                 2.4416                 5.8845

                    97                     98                     99
                     A                      A                      A
 Frequencies --  1374.4264              1383.0284              1392.5488
 Red. masses --     1.5739                 1.2643                 1.4454
 Frc consts  --     1.7517                 1.4248                 1.6514
 IR Inten    --     6.4211                32.8811                 6.8459
 Raman Activ --     3.4587                 1.7435                 3.9198

                   100                    101                    102
                     A                      A                      A
 Frequencies --  1413.2535              1448.9973              1460.0905
 Red. masses --     1.5338                 1.3920                 1.2500
 Frc consts  --     1.8049                 1.7219                 1.5700
 IR Inten    --    34.7654                32.4064                16.9866
 Raman Activ --     1.4671                 1.1301                 3.1316

                   103                    104                    105
                     A                      A                      A
 Frequencies --  1471.3321              1474.3488              1498.2415
 Red. masses --     1.1217                 1.0731                 1.3491
 Frc consts  --     1.4307                 1.3744                 1.7843
 IR Inten    --     6.5245                 3.3017                34.7426
 Raman Activ --     3.1078                 4.5799                 1.0780

                   106                    107                    108
                     A                      A                      A
 Frequencies --  1501.2292              1530.7283              3254.1355
 Red. masses --     1.2900                 1.2559                 1.0576
 Frc consts  --     1.7129                 1.7338                 6.5984
 IR Inten    --    74.2266                44.3070                18.8861
 Raman Activ --     1.6163                 1.7504                82.9309

                   109                    110                    111
                     A                      A                      A
 Frequencies --  3256.0495              3266.1382              3271.3397
 Red. masses --     1.0634                 1.0662                 1.0814
 Frc consts  --     6.6425                 6.7014                 6.8182
 IR Inten    --   416.6009               104.3111               163.8827
 Raman Activ --    29.6371               343.6648                15.8105

                   112                    113                    114
                     A                      A                      A
 Frequencies --  3274.9106              3279.4230              3281.3484
 Red. masses --     1.0804                 1.0828                 1.0818
 Frc consts  --     6.8270                 6.8613                 6.8627
 IR Inten    --   143.7385                32.2172                33.9664
 Raman Activ --    45.1855                73.3194                57.9939

                   115                    116                    117
                     A                      A                      A
 Frequencies --  3283.5501              3291.3143              3293.9312
 Red. masses --     1.0841                 1.0835                 1.0814
 Frc consts  --     6.8864                 6.9157                 6.9128
 IR Inten    --    10.1293               159.0860               220.2514
 Raman Activ --   156.4562                11.7535                58.1502

                   118                    119                    120
                     A                      A                      A
 Frequencies --  3296.7476              3300.9544              3302.3378
 Red. masses --     1.0810                 1.0895                 1.0883
 Frc consts  --     6.9226                 6.9946                 6.9928
 IR Inten    --   360.1182                13.5728                65.6954
 Raman Activ --    31.8074                12.3240               123.1380

                   121                    122                    123
                     A                      A                      A
 Frequencies --  3309.9817              3311.3139              3316.6518
 Red. masses --     1.0984                 1.0896                 1.1012
 Frc consts  --     7.0899                 7.0390                 7.1369
 IR Inten    --    87.9542                53.1610                81.0942
 Raman Activ --    39.3585                24.3798                23.1873

                   124                    125                    126
                     A                      A                      A
 Frequencies --  3363.5843              3364.1400              3370.9882
 Red. masses --     1.0664                 1.0658                 1.0696
 Frc consts  --     7.1085                 7.1069                 7.1611
 IR Inten    --    30.1614                48.5363                73.7728
 Raman Activ --    97.4541               168.6168               140.3566

                   127                    128                    129
                     A                      A                      A
 Frequencies --  3371.7853              3888.7397              3889.1726
 Red. masses --     1.0651                 1.0673                 1.0676
 Frc consts  --     7.1342                 9.5098                 9.5141
 IR Inten    --    27.3167                67.9903                65.1739
 Raman Activ --   140.5234               123.3680                99.4557

 - Thermochemistry -
 -------------------
 Temperature   298.150 Kelvin.  Pressure   1.00000 Atm.
 Atom     1 has atomic number  8 and mass  15.99491

 Molecular mass:   342.11621 amu.
 Principal axes and moments of inertia in atomic units:
                           1         2         3
     Eigenvalues --  4387.38159********************
           X            0.99997  -0.00771   0.00043
           Y            0.00771   0.99997  -0.00219
           Z           -0.00041   0.00219   1.00000
 This molecule is an asymmetric top.
 Rotational symmetry number  1.
 Warning -- assumption of classical behavior for rotation
           may cause significant error
 Rotational temperatures (Kelvin)      0.01974     0.00707     0.00530
 Rotational constants (GHZ):           0.41135     0.14724     0.11050
    7 imaginary frequencies ignored.
 Zero-point vibrational energy     974586.2 (Joules/Mol)
                                  232.93170 (Kcal/Mol)
 Warning -- explicit consideration of  31 degrees of freedom as
           vibrations may cause significant error
 Vibrational temperatures:     74.80    92.30   119.23   140.96   167.06
          (Kelvin)            222.86   249.14   269.90   306.71   338.88
                              393.70   401.41   425.81   439.18   458.71
                              462.87   465.72   503.32   526.64   549.70
                              581.15   619.77   632.50   645.20   683.62
                              713.84   746.02   759.97   828.01   861.98
                              868.76   904.23   914.34   956.24  1004.14
                             1054.15  1074.86  1105.85  1211.78  1216.74
                             1230.32  1249.66  1303.28  1341.28  1405.53
                             1409.56  1417.75  1441.49  1451.15  1466.53
                             1494.68  1511.07  1540.40  1545.79  1547.60
                             1558.47  1559.89  1575.67  1590.47  1594.79
                             1617.39  1622.50  1630.18  1638.90  1647.72
                             1654.45  1658.45  1681.76  1710.63  1730.98
                             1735.53  1759.90  1768.59  1789.06  1820.33
                             1826.40  1831.31  1850.67  1855.35  1862.94
                             1878.33  1894.74  1903.13  1913.16  1922.67
                             1942.54  1945.61  1954.89  1972.80  1977.49
                             1989.87  2003.56  2033.35  2084.78  2100.74
                             2116.92  2121.26  2155.63  2159.93  2202.37
                             4681.97  4684.72  4699.24  4706.72  4711.86
                             4718.35  4721.12  4724.29  4735.46  4739.23
                             4743.28  4749.33  4751.32  4762.32  4764.24
                             4771.92  4839.44  4840.24  4850.09  4851.24
                             5595.02  5595.64

 Zero-point correction=                           0.371200 (Hartree/Particle)
 Thermal correction to Energy=                    0.389361
 Thermal correction to Enthalpy=                  0.390305
 Thermal correction to Gibbs Free Energy=         0.325999
 Sum of electronic and zero-point Energies=          -1297.621952
 Sum of electronic and thermal Energies=             -1297.603792
 Sum of electronic and thermal Enthalpies=           -1297.602848
 Sum of electronic and thermal Free Energies=        -1297.667154

                     E (Thermal)             CV                S
                      KCal/Mol        Cal/Mol-Kelvin    Cal/Mol-Kelvin
 Total                  244.328             75.656            135.344
 Electronic               0.000              0.000              0.000
 Translational            0.889              2.981             43.384
 Rotational               0.889              2.981             35.128
 Vibrational            242.550             69.694             56.831
 Vibration     1          0.596              1.977              4.740
 Vibration     2          0.597              1.971              4.325
 Vibration     3          0.600              1.961              3.822
 Vibration     4          0.603              1.951              3.494
 Vibration     5          0.608              1.936              3.164
 Vibration     6          0.620              1.897              2.611
 Vibration     7          0.627              1.876              2.401
 Vibration     8          0.632              1.857              2.252
 Vibration     9          0.644              1.821              2.016
 Vibration    10          0.655              1.786              1.836
 Vibration    11          0.676              1.722              1.573
 Vibration    12          0.679              1.712              1.540
 Vibration    13          0.690              1.681              1.440
 Vibration    14          0.696              1.664              1.388
 Vibration    15          0.705              1.638              1.316
 Vibration    16          0.707              1.632              1.301
 Vibration    17          0.708              1.628              1.291
 Vibration    18          0.727              1.576              1.167
 Vibration    19          0.739              1.542              1.096
 Vibration    20          0.752              1.508              1.031
 Vibration    21          0.769              1.462              0.948
 Vibration    22          0.792              1.403              0.856
 Vibration    23          0.800              1.384              0.828
 Vibration    24          0.807              1.364              0.801
 Vibration    25          0.832              1.305              0.723
 Vibration    26          0.852              1.259              0.668
 Vibration    27          0.874              1.209              0.613
 Vibration    28          0.883              1.188              0.591
 Vibration    29          0.932              1.084              0.494
 Vibration    30          0.957              1.034              0.451
 Vibration    31          0.962              1.024              0.443

 Normal termination of Gaussian 09 at Fri Apr  1 10:00:33 2016.
