 Gaussian 09, Revision B.01,
 Gaussian 09:  EM64L-G09RevB.01 12-Aug-2010

 --------------------------------------------------
 # freq=raman b3lyp/6-31+g(2df,p) geom=connectivity
 --------------------------------------------------

 -------------
 400 10000.com
 -------------
 Symbolic Z-matrix:
 Charge =  0 Multiplicity = 1

                         Standard orientation:
 ---------------------------------------------------------------------
 Center     Atomic      Atomic             Coordinates (Angstroms)
 Number     Number       Type             X           Y           Z
 ---------------------------------------------------------------------
      1          8           0       -4.966072   -0.289964    0.411653
      2          6           0       -3.662331   -0.200366   -0.180414
      3          6           0       -3.263553    1.252294    0.021261
      4          8           0       -4.099794    2.208203   -0.647221
      5          1           0       -5.061075    1.949868   -0.548897
      6          6           0       -1.790620    1.561699   -0.191397
      7          8           0       -1.233820    2.669290    0.531653
      8          1           0       -0.312927    2.869702    0.195118
      9          6           0       -2.955645   -2.532437    0.293493
     10          8           0       -4.233717   -3.180639    0.234679
     11          1           0       -4.037616   -4.160204    0.175720
     12          6           0       -2.658607   -1.066243    0.563256
     13          8           0       -1.350355   -0.876704    0.003873
     14          6           0       -0.928789    0.443810    0.374256
     15          8           0        0.193522    0.514980   -0.517092
     16          6           0        1.475660    0.168944    0.025025
     17          6           0        2.032748   -1.043963   -0.702036
     18          8           0        1.087475   -2.123502   -0.695550
     19          1           0        0.235599   -1.600867   -0.743995
     20          6           0        3.266712   -1.575275    0.010070
     21          8           0        3.729162   -2.729618   -0.704758
     22          1           0        4.575437   -2.999688   -0.245251
     23          6           0        2.209324    2.566140    0.266162
     24          8           0        1.359542    3.398784   -0.536437
     25          1           0        1.319728    4.321160   -0.151464
     26          6           0        2.584534    1.177751   -0.225121
     27          8           0        3.758548    0.825034    0.521570
     28          6           0        4.282174   -0.449660    0.121145
     29          8           0        5.391072   -0.635520    1.012972
     30          1           0        6.212309   -0.573702    0.519668
     31          1           0        4.694197   -0.319877   -0.857780
     32          1           0        2.986306   -1.877609    0.997423
     33          1           0        2.279094   -0.782610   -1.709959
     34          1           0        1.392116   -0.035745    1.071936
     35          1           0        2.815488    1.212365   -1.269325
     36          1           0        3.120766    3.103355    0.426082
     37          1           0        1.732297    2.448371    1.216675
     38          1           0       -5.634550   -0.167802   -0.266442
     39          1           0       -0.663298    0.556635    1.404637
     40          1           0       -1.592333    1.676337   -1.236596
     41          1           0       -3.428699    1.431169    1.063197
     42          1           0       -3.692991   -0.449731   -1.220500
     43          1           0       -2.665255   -0.856513    1.612479
     44          1           0       -2.409698   -3.066762    1.042718
     45          1           0       -2.499050   -2.736783   -0.652374
 ---------------------------------------------------------------------

 SCF Done:  E(RB3LYP) =  -1297.98692248     A.U. after   13 cycles

 The electronic state is 1-A.
 Alpha  occ. eigenvalues --  -19.18765 -19.18686 -19.18272 -19.18113 -19.17893
 Alpha  occ. eigenvalues --  -19.16906 -19.16737 -19.15818 -19.15785 -19.14632
 Alpha  occ. eigenvalues --  -19.13527 -10.30442 -10.30414 -10.25992 -10.25981
 Alpha  occ. eigenvalues --  -10.25408 -10.25317 -10.25000 -10.24922 -10.24559
 Alpha  occ. eigenvalues --  -10.24068 -10.23882 -10.23465  -1.10971  -1.09158
 Alpha  occ. eigenvalues --   -1.05519  -1.05118  -1.04144  -1.03619  -1.02977
 Alpha  occ. eigenvalues --   -1.02285  -1.02156  -1.01165  -1.00315  -0.82560
 Alpha  occ. eigenvalues --   -0.80592  -0.79255  -0.78185  -0.71870  -0.69866
 Alpha  occ. eigenvalues --   -0.67343  -0.64987  -0.62988  -0.62477  -0.61498
 Alpha  occ. eigenvalues --   -0.60492  -0.56355  -0.56135  -0.54962  -0.54758
 Alpha  occ. eigenvalues --   -0.53681  -0.53591  -0.53303  -0.51551  -0.51222
 Alpha  occ. eigenvalues --   -0.50401  -0.50280  -0.49123  -0.48628  -0.46660
 Alpha  occ. eigenvalues --   -0.46315  -0.45031  -0.44371  -0.43457  -0.43236
 Alpha  occ. eigenvalues --   -0.42386  -0.41792  -0.41555  -0.40485  -0.39646
 Alpha  occ. eigenvalues --   -0.39305  -0.38077  -0.36970  -0.36859  -0.36194
 Alpha  occ. eigenvalues --   -0.35973  -0.35607  -0.34291  -0.34036  -0.33642
 Alpha  occ. eigenvalues --   -0.32983  -0.31747  -0.31317  -0.30721  -0.29767
 Alpha  occ. eigenvalues --   -0.29293  -0.28679  -0.28376  -0.28092  -0.26932
 Alpha  occ. eigenvalues --   -0.26376
 Alpha virt. eigenvalues --   -0.02014  -0.01911  -0.01893  -0.00672   0.00063
 Alpha virt. eigenvalues --    0.00745   0.01938   0.02388   0.03162   0.03644
 Alpha virt. eigenvalues --    0.03854   0.04219   0.04382   0.05359   0.05742

 Mulliken atomic charges:
              1
     1  O   -0.442748
     2  C    0.018386
     3  C   -0.002815
     4  O   -0.491639
     5  H    0.325581
     6  C    0.091632
     7  O   -0.484711
     8  H    0.415214
     9  C   -0.373552
    10  O   -0.439598
    11  H    0.343536
    12  C   -0.098218
    13  O    0.034887
    14  C   -0.217106
    15  O   -0.024583
    16  C   -0.033435
    17  C   -0.059426
    18  O   -0.443545
    19  H    0.396146
    20  C    0.067410
    21  O   -0.419912
    22  H    0.335345
    23  C   -0.375729
    24  O   -0.487100
    25  H    0.368739
    26  C   -0.023530
    27  O   -0.021986
    28  C   -0.139545
    29  O   -0.457496
    30  H    0.346248
    31  H    0.120312
    32  H    0.135514
    33  H    0.128410
    34  H    0.127692
    35  H    0.135068
    36  H    0.150990
    37  H    0.156236
    38  H    0.340131
    39  H    0.151618
    40  H    0.153245
    41  H    0.134228
    42  H    0.139052
    43  H    0.127615
    44  H    0.140196
    45  H    0.153242
 Sum of Mulliken atomic charges =   0.00000

 Dipole moment (field-independent basis, Debye):
    X=              2.1490    Y=              0.6574    Z=              0.0712  Tot=              2.2484
 Quadrupole moment (field-independent basis, Debye-Ang):
   XX=           -118.5362   YY=           -137.3874   ZZ=           -142.2612
   XY=              9.7469   XZ=              1.4483   YZ=             -1.7303

  Exact polarizability: 230.991  -1.282 196.542   2.852   0.723 144.387
 Approx polarizability: 273.299  -0.344 257.529   2.414   1.787 240.218

 ******    7 imaginary frequencies (negative Signs) ******

                     1                      2                      3
                     A                      A                      A
 Frequencies --  -352.8601              -269.5656              -252.2057
 Red. masses --     1.6662                 1.7884                 1.1874
 Frc consts  --     0.1222                 0.0766                 0.0445
 IR Inten    --     1.9148                11.7239               117.0571
 Raman Activ --     0.0407                 0.0433                 1.0606

                     4                      5                      6
                     A                      A                      A
 Frequencies --  -180.6365               -66.5034               -46.0655
 Red. masses --     1.2312                 6.4689                 6.3087
 Frc consts  --     0.0237                 0.0169                 0.0079
 IR Inten    --    90.1471                 1.4032                 0.0899
 Raman Activ --     0.8467                 0.0858                 0.1301

                     7                      8                      9
                     A                      A                      A
 Frequencies --   -44.4842                50.9518                59.7447
 Red. masses --     5.7160                 7.0533                 6.3498
 Frc consts  --     0.0067                 0.0108                 0.0134
 IR Inten    --     0.8281                 0.8785                 0.9859
 Raman Activ --     0.0414                 0.1702                 0.0276

                    10                     11                     12
                     A                      A                      A
 Frequencies --    79.1068                87.4780               107.1822
 Red. masses --     6.2243                 6.8376                 5.8349
 Frc consts  --     0.0229                 0.0308                 0.0395
 IR Inten    --     1.3930                 1.0500                 3.5945
 Raman Activ --     0.1482                 0.0630                 0.1226

                    13                     14                     15
                     A                      A                      A
 Frequencies --   134.3571               163.7123               180.1247
 Red. masses --     6.5848                 6.6183                 6.5350
 Frc consts  --     0.0700                 0.1045                 0.1249
 IR Inten    --     4.8049                 0.3063                 1.1511
 Raman Activ --     0.3178                 0.2415                 0.1563

                    16                     17                     18
                     A                      A                      A
 Frequencies --   195.3019               246.3036               270.7922
 Red. masses --     7.3486                 5.3682                 5.3606
 Frc consts  --     0.1651                 0.1919                 0.2316
 IR Inten    --     0.5813                 5.5280                 6.7723
 Raman Activ --     1.6722                 0.9889                 0.8439

                    19                     20                     21
                     A                      A                      A
 Frequencies --   275.6212               298.6977               302.3346
 Red. masses --     5.0222                 4.3492                 5.9448
 Frc consts  --     0.2248                 0.2286                 0.3202
 IR Inten    --     1.2126                 5.8774                 3.3039
 Raman Activ --     0.1445                 1.0030                 0.2099

                    22                     23                     24
                     A                      A                      A
 Frequencies --   311.0163               318.5921               325.6025
 Red. masses --     4.2570                 6.3348                 6.3539
 Frc consts  --     0.2426                 0.3788                 0.3969
 IR Inten    --     2.9511                 5.5390                 6.0569
 Raman Activ --     0.4947                 1.8964                 5.3651

                    25                     26                     27
                     A                      A                      A
 Frequencies --   336.5117               359.0101               393.6259
 Red. masses --     4.9554                 5.6879                 6.5273
 Frc consts  --     0.3306                 0.4319                 0.5959
 IR Inten    --     2.7442                 5.2530                 1.1119
 Raman Activ --     1.0633                 0.2421                 2.1266

                    28                     29                     30
                     A                      A                      A
 Frequencies --   411.4244               424.1957               439.4512
 Red. masses --     4.5078                 5.3249                 5.2403
 Frc consts  --     0.4496                 0.5645                 0.5963
 IR Inten    --     7.9451                12.1821                 4.2265
 Raman Activ --     1.0685                 7.4643                 2.3152

                    31                     32                     33
                     A                      A                      A
 Frequencies --   450.0725               476.7119               485.1502
 Red. masses --     4.6731                 4.8347                 4.1182
 Frc consts  --     0.5577                 0.6473                 0.5711
 IR Inten    --     3.5303                 5.2638                16.5553
 Raman Activ --     2.0791                 5.6680                 0.0531

                    34                     35                     36
                     A                      A                      A
 Frequencies --   524.0643               546.7133               575.7621
 Red. masses --     4.3902                 2.9964                 4.4123
 Frc consts  --     0.7104                 0.5277                 0.8618
 IR Inten    --     2.0698                13.4157                22.8041
 Raman Activ --     1.1817                 3.2761                 2.0955

                    37                     38                     39
                     A                      A                      A
 Frequencies --   595.0658               611.0695               632.7698
 Red. masses --     3.2779                 4.5803                 5.8693
 Frc consts  --     0.6839                 1.0077                 1.3846
 IR Inten    --    18.2283                10.5390                20.3902
 Raman Activ --     0.5514                 1.4939                 0.5037

                    40                     41                     42
                     A                      A                      A
 Frequencies --   655.7091               702.3409               714.3571
 Red. masses --     3.5556                 4.2571                 1.1010
 Frc consts  --     0.9007                 1.2372                 0.3310
 IR Inten    --    31.4251                33.1603                40.0909
 Raman Activ --     0.5933                 2.8293                 1.5661

                    43                     44                     45
                     A                      A                      A
 Frequencies --   718.9413               745.9387               751.7881
 Red. masses --     1.0964                 1.0871                 1.0621
 Frc consts  --     0.3339                 0.3564                 0.3537
 IR Inten    --   129.8493                76.6538               182.7875
 Raman Activ --     1.8952                 2.0890                 1.9783

                    46                     47                     48
                     A                      A                      A
 Frequencies --   804.1419               844.0720               852.3390
 Red. masses --     1.1153                 1.5937                 1.2349
 Frc consts  --     0.4249                 0.6690                 0.5286
 IR Inten    --   101.9776                13.7591                35.8059
 Raman Activ --     2.5394                 2.0896                 0.6288

                    49                     50                     51
                     A                      A                      A
 Frequencies --   871.8732               928.3857               963.5517
 Red. masses --     1.7042                 5.2656                 5.8152
 Frc consts  --     0.7632                 2.6739                 3.1810
 IR Inten    --    11.0520                76.8297               167.1035
 Raman Activ --     0.7810                 2.5739                 1.0347

                    52                     53                     54
                     A                      A                      A
 Frequencies --   973.9916               984.0729               993.1416
 Red. masses --     4.9474                 4.7327                 6.4371
 Frc consts  --     2.7652                 2.7003                 3.7408
 IR Inten    --    43.9993                45.4093               114.6498
 Raman Activ --     1.7794                 3.8038                 2.8695

                    55                     56                     57
                     A                      A                      A
 Frequencies --  1006.3339              1011.4281              1022.6421
 Red. masses --     5.3406                 5.1600                 5.2087
 Frc consts  --     3.1866                 3.1101                 3.2094
 IR Inten    --   116.8703               181.0786               117.0438
 Raman Activ --     1.1828                 2.2461                 1.8593

                    58                     59                     60
                     A                      A                      A
 Frequencies --  1037.9148              1048.6414              1054.0237
 Red. masses --     4.7406                 2.9331                 5.0163
 Frc consts  --     3.0089                 1.9003                 3.2835
 IR Inten    --   301.8044                72.5910                48.2772
 Raman Activ --     3.0462                 5.6664                 1.5923

                    61                     62                     63
                     A                      A                      A
 Frequencies --  1067.1597              1069.0929              1074.9143
 Red. masses --     4.7919                 3.4208                 3.3751
 Frc consts  --     3.2153                 2.3036                 2.2976
 IR Inten    --   101.8830                 2.3176               103.7507
 Raman Activ --     1.6740                 1.1339                12.4799

                    64                     65                     66
                     A                      A                      A
 Frequencies --  1093.4939              1098.6841              1105.0629
 Red. masses --     3.2172                 2.6733                 2.8026
 Frc consts  --     2.2665                 1.9013                 2.0164
 IR Inten    --    36.4560                30.6137                 5.1752
 Raman Activ --    24.5481                11.8295                 1.9410

                    67                     68                     69
                     A                      A                      A
 Frequencies --  1116.1401              1123.2250              1127.9380
 Red. masses --     2.5519                 2.3692                 2.4212
 Frc consts  --     1.8731                 1.7611                 1.8149
 IR Inten    --    22.2640                 2.3911                52.6037
 Raman Activ --     2.3452                 6.4898                 9.5138

                    70                     71                     72
                     A                      A                      A
 Frequencies --  1140.0186              1148.6505              1155.8506
 Red. masses --     2.6252                 2.0747                 2.2010
 Frc consts  --     2.0102                 1.6128                 1.7325
 IR Inten    --     6.9275                38.0852                65.6702
 Raman Activ --     3.3886                 3.3214                 7.8503

                    73                     74                     75
                     A                      A                      A
 Frequencies --  1160.0953              1174.8365              1185.8082
 Red. masses --     2.0704                 1.7618                 2.0152
 Frc consts  --     1.6417                 1.4327                 1.6696
 IR Inten    --     4.5612                26.2011                23.7612
 Raman Activ --     1.2560                 1.3700                 0.5486

                    76                     77                     78
                     A                      A                      A
 Frequencies --  1191.9530              1208.0358              1212.0643
 Red. masses --     1.3010                 1.4141                 1.3812
 Frc consts  --     1.0890                 1.2159                 1.1956
 IR Inten    --    18.5487                 3.2675                 1.7381
 Raman Activ --     1.8270                 2.3768                 3.3528

                    79                     80                     81
                     A                      A                      A
 Frequencies --  1219.8017              1253.5381              1256.6927
 Red. masses --     1.3183                 1.2769                 1.2896
 Frc consts  --     1.1557                 1.1822                 1.1999
 IR Inten    --     5.6412                 9.2026                 8.5961
 Raman Activ --     0.5748                 2.5742                 0.7674

                    82                     83                     84
                     A                      A                      A
 Frequencies --  1257.9318              1274.7729              1283.3337
 Red. masses --     1.2459                 1.1577                 1.3655
 Frc consts  --     1.1616                 1.1085                 1.3250
 IR Inten    --    14.7247                 8.6554                47.3106
 Raman Activ --     0.2051                 5.6086                 4.1057

                    85                     86                     87
                     A                      A                      A
 Frequencies --  1295.6634              1300.3569              1302.9736
 Red. masses --     1.3157                 1.5619                 1.3423
 Frc consts  --     1.3013                 1.5561                 1.3427
 IR Inten    --    17.7499                21.5574                18.7471
 Raman Activ --     1.3065                 2.4466                 1.4904

                    88                     89                     90
                     A                      A                      A
 Frequencies --  1306.3839              1322.1895              1323.5779
 Red. masses --     1.4334                 1.2511                 1.2316
 Frc consts  --     1.4413                 1.2886                 1.2713
 IR Inten    --     8.5369                54.5580                16.3932
 Raman Activ --     8.7596                 1.9700                 7.2789

                    91                     92                     93
                     A                      A                      A
 Frequencies --  1327.6229              1337.2137              1344.9571
 Red. masses --     1.2196                 1.2639                 1.1859
 Frc consts  --     1.2665                 1.3316                 1.2640
 IR Inten    --    17.5431                13.2245                17.9884
 Raman Activ --     3.2184                 2.5007                 8.5015

                    94                     95                     96
                     A                      A                      A
 Frequencies --  1353.1834              1357.7027              1367.7548
 Red. masses --     1.3331                 1.4291                 1.1055
 Frc consts  --     1.4383                 1.5521                 1.2185
 IR Inten    --    41.1375                12.1115                11.5466
 Raman Activ --     2.6293                 8.7862                 4.6118

                    97                     98                     99
                     A                      A                      A
 Frequencies --  1383.9049              1399.8558              1401.3863
 Red. masses --     1.5091                 1.5522                 1.3439
 Frc consts  --     1.7028                 1.7921                 1.5551
 IR Inten    --     2.9780                19.0862                 4.2387
 Raman Activ --     3.3214                 2.8187                 7.0457

                   100                    101                    102
                     A                      A                      A
 Frequencies --  1415.8188              1448.9297              1453.2357
 Red. masses --     1.4256                 1.3700                 1.1927
 Frc consts  --     1.6837                 1.6946                 1.4840
 IR Inten    --    37.0512                32.6024                 8.5388
 Raman Activ --     2.1433                 1.7864                 2.1888

                   103                    104                    105
                     A                      A                      A
 Frequencies --  1453.7760              1469.3024              1471.6093
 Red. masses --     1.2915                 1.1505                 1.2280
 Frc consts  --     1.6082                 1.4634                 1.5669
 IR Inten    --     8.2819                23.3765                 7.2624
 Raman Activ --     3.3564                 2.5717                 2.9439

                   106                    107                    108
                     A                      A                      A
 Frequencies --  1490.1486              1536.0952              3244.9071
 Red. masses --     1.3285                 1.2331                 1.0578
 Frc consts  --     1.7381                 1.7143                 6.5623
 IR Inten    --    17.1962                56.0767                30.4482
 Raman Activ --     1.0926                 1.4581                72.3954

                   109                    110                    111
                     A                      A                      A
 Frequencies --  3249.0966              3259.9320              3261.8507
 Red. masses --     1.0611                 1.0832                 1.0794
 Frc consts  --     6.5996                 6.7824                 6.7666
 IR Inten    --   193.8443                23.5353                48.3858
 Raman Activ --    14.7819                53.9363               165.0578

                   112                    113                    114
                     A                      A                      A
 Frequencies --  3265.5813              3267.9863              3279.5294
 Red. masses --     1.0697                 1.0818                 1.0865
 Frc consts  --     6.7212                 6.8072                 6.8852
 IR Inten    --   353.2581                 4.6989                 2.1998
 Raman Activ --   203.7317                56.2194               101.8601

                   115                    116                    117
                     A                      A                      A
 Frequencies --  3280.7038              3284.7684              3292.4441
 Red. masses --     1.0822                 1.0855                 1.0882
 Frc consts  --     6.8624                 6.9007                 6.9499
 IR Inten    --    17.9542                17.6432                 2.9202
 Raman Activ --   133.3437                 5.8768                10.2044

                   118                    119                    120
                     A                      A                      A
 Frequencies --  3297.1640              3298.3473              3305.7989
 Red. masses --     1.0878                 1.0886                 1.0972
 Frc consts  --     6.9676                 6.9775                 7.0648
 IR Inten    --    62.8288                14.8236                30.8994
 Raman Activ --    28.9247                46.6965                27.0313

                   121                    122                    123
                     A                      A                      A
 Frequencies --  3308.6920              3310.0996              3319.4257
 Red. masses --     1.1000                 1.0886                 1.0691
 Frc consts  --     7.0950                 7.0273                 6.9405
 IR Inten    --    14.4252               157.0335               313.4119
 Raman Activ --    41.2253                26.1387               117.4998

                   124                    125                    126
                     A                      A                      A
 Frequencies --  3346.7109              3349.6056              3356.8302
 Red. masses --     1.0669                 1.0655                 1.0657
 Frc consts  --     7.0409                 7.0434                 7.0754
 IR Inten    --    49.3112                20.4045                36.6297
 Raman Activ --   137.3340               138.6678               125.4138

                   127                    128                    129
                     A                      A                      A
 Frequencies --  3357.8584              3868.5975              3875.8846
 Red. masses --     1.0670                 1.0674                 1.0676
 Frc consts  --     7.0879                 9.4121                 9.4496
 IR Inten    --    61.0973                57.2691                82.6821
 Raman Activ --   137.3936                98.5108               109.7021

 - Thermochemistry -
 -------------------
 Temperature   298.150 Kelvin.  Pressure   1.00000 Atm.
 Atom     1 has atomic number  8 and mass  15.99491

 Molecular mass:   342.11621 amu.
 Principal axes and moments of inertia in atomic units:
                           1         2         3
     Eigenvalues --  4459.42385********************
           X            0.99998   0.00630  -0.00050
           Y           -0.00629   0.99998   0.00021
           Z            0.00050  -0.00020   1.00000
 This molecule is an asymmetric top.
 Rotational symmetry number  1.
 Warning -- assumption of classical behavior for rotation
           may cause significant error
 Rotational temperatures (Kelvin)      0.01942     0.00714     0.00545
 Rotational constants (GHZ):           0.40470     0.14887     0.11352
    7 imaginary frequencies ignored.
 Zero-point vibrational energy     974350.6 (Joules/Mol)
                                  232.87538 (Kcal/Mol)
 Warning -- explicit consideration of  31 degrees of freedom as
           vibrations may cause significant error
 Vibrational temperatures:     73.31    85.96   113.82   125.86   154.21
          (Kelvin)            193.31   235.55   259.16   281.00   354.38
                              389.61   396.56   429.76   434.99   447.48
                              458.38   468.47   484.16   516.53   566.34
                              591.95   610.32   632.27   647.55   685.88
                              698.02   754.01   786.60   828.39   856.17
                              879.19   910.41   943.42  1010.51  1027.80
                             1034.39  1073.24  1081.65  1156.98  1214.43
                             1226.32  1254.43  1335.74  1386.33  1401.35
                             1415.86  1428.91  1447.89  1455.22  1471.35
                             1493.33  1508.76  1516.50  1535.40  1538.18
                             1546.56  1573.29  1580.76  1589.94  1605.87
                             1616.07  1622.85  1640.23  1652.65  1663.01
                             1669.12  1690.33  1706.11  1714.95  1738.09
                             1743.89  1755.02  1803.56  1808.10  1809.88
                             1834.11  1846.43  1864.17  1870.92  1874.69
                             1879.59  1902.33  1904.33  1910.15  1923.95
                             1935.09  1946.93  1953.43  1967.89  1991.13
                             2014.08  2016.28  2037.04  2084.68  2090.88
                             2091.66  2114.00  2117.31  2143.99  2210.10
                             4668.69  4674.72  4690.31  4693.07  4698.44
                             4701.90  4718.51  4720.20  4726.04  4737.09
                             4743.88  4745.58  4756.30  4760.46  4762.49
                             4775.91  4815.16  4819.33  4829.72  4831.20
                             5566.04  5576.53

 Zero-point correction=                           0.371111 (Hartree/Particle)
 Thermal correction to Energy=                    0.389387
 Thermal correction to Enthalpy=                  0.390331
 Thermal correction to Gibbs Free Energy=         0.325476
 Sum of electronic and zero-point Energies=          -1297.615812
 Sum of electronic and thermal Energies=             -1297.597535
 Sum of electronic and thermal Enthalpies=           -1297.596591
 Sum of electronic and thermal Free Energies=        -1297.661446

                     E (Thermal)             CV                S
                      KCal/Mol        Cal/Mol-Kelvin    Cal/Mol-Kelvin
 Total                  244.344             75.525            136.499
 Electronic               0.000              0.000              0.000
 Translational            0.889              2.981             43.384
 Rotational               0.889              2.981             35.107
 Vibrational            242.567             69.563             58.008
 Vibration     1          0.595              1.977              4.780
 Vibration     2          0.597              1.973              4.466
 Vibration     3          0.600              1.963              3.913
 Vibration     4          0.601              1.958              3.716
 Vibration     5          0.606              1.943              3.319
 Vibration     6          0.613              1.919              2.883
 Vibration     7          0.623              1.887              2.506
 Vibration     8          0.629              1.867              2.327
 Vibration     9          0.636              1.846              2.177
 Vibration    10          0.661              1.769              1.757
 Vibration    11          0.674              1.727              1.591
 Vibration    12          0.677              1.718              1.561
 Vibration    13          0.692              1.676              1.424
 Vibration    14          0.694              1.669              1.404
 Vibration    15          0.700              1.653              1.357
 Vibration    16          0.705              1.638              1.317
 Vibration    17          0.710              1.624              1.282
 Vibration    18          0.717              1.603              1.229
 Vibration    19          0.734              1.557              1.126
 Vibration    20          0.761              1.484              0.986
 Vibration    21          0.775              1.445              0.922
 Vibration    22          0.786              1.418              0.878
 Vibration    23          0.799              1.384              0.828
 Vibration    24          0.809              1.361              0.796
 Vibration    25          0.833              1.302              0.719
 Vibration    26          0.841              1.283              0.696
 Vibration    27          0.879              1.197              0.601
 Vibration    28          0.902              1.147              0.551
 Vibration    29          0.932              1.084              0.493
 Vibration    30          0.953              1.042              0.458
 Vibration    31          0.970              1.008              0.431

 Normal termination of Gaussian 09 at Fri Feb 12 11:53:47 2016.
