 Gaussian 09, Revision B.01,
 Gaussian 09:  EM64L-G09RevB.01 12-Aug-2010

 -------------------------------------------------
 # freq=raman b3lyp/6-31+g(2d,p) geom=connectivity
 -------------------------------------------------

 -----------------
 500 5863/5863.com
 -----------------
 Symbolic Z-matrix:
 Charge =  0 Multiplicity = 1

                         Standard orientation:
 ---------------------------------------------------------------------
 Center     Atomic      Atomic             Coordinates (Angstroms)
 Number     Number       Type             X           Y           Z
 ---------------------------------------------------------------------
      1          8           0       -5.189770    0.370923   -0.119864
      2          6           0       -3.878709   -0.030270    0.302394
      3          6           0       -3.343382   -1.190006   -0.521986
      4          8           0       -4.106435   -2.398610   -0.641974
      5          1           0       -5.026656   -2.070106   -0.851717
      6          6           0       -2.079677   -1.714719    0.141314
      7          8           0       -1.511633   -2.934205   -0.358098
      8          1           0       -1.920471   -3.790659   -0.045514
      9          6           0       -3.366560    2.384233    0.566437
     10          8           0       -2.725313    3.473663   -0.112522
     11          1           0       -3.209343    4.300142    0.176110
     12          6           0       -2.804222    1.034487    0.150438
     13          8           0       -1.466949    0.653238    0.504570
     14          6           0       -1.075899   -0.596244   -0.083523
     15          8           0        0.150125   -0.676428    0.659829
     16          6           0        1.419423   -0.300377    0.107474
     17          6           0        1.748385    1.183069    0.131773
     18          8           0        0.818555    2.032338   -0.557198
     19          1           0       -0.114476    1.814042   -0.270992
     20          6           0        3.088660    1.556802   -0.481891
     21          8           0        3.263174    2.964916   -0.699065
     22          1           0        2.349969    3.098987   -1.085637
     23          6           0        2.608472   -2.551349    0.468116
     24          8           0        3.276120   -3.022146   -0.711207
     25          1           0        3.216848   -4.020948   -0.714949
     26          6           0        2.517352   -1.075196    0.817905
     27          8           0        3.839395   -0.525104    0.723866
     28          6           0        4.147306    0.817334    0.320740
     29          8           0        5.338829    0.563538   -0.436363
     30          1           0        6.013840    0.200200    0.141518
     31          1           0        4.397352    1.394895    1.186073
     32          1           0        3.100115    1.114108   -1.455950
     33          1           0        1.766114    1.488507    1.157099
     34          1           0        1.422447   -0.608314   -0.917253
     35          1           0        2.262561   -1.039058    1.856497
     36          1           0        1.603951   -2.916408    0.417437
     37          1           0        3.078402   -3.034347    1.299247
     38          1           0       -5.788219    0.349255    0.630463
     39          1           0       -3.231717    2.505670    1.620937
     40          1           0       -4.413312    2.406417    0.345715
     41          1           0       -2.726869    1.138436   -0.911688
     42          1           0       -3.925003   -0.328991    1.328807
     43          1           0       -3.100612   -0.834792   -1.501672
     44          1           0       -2.256175   -1.818815    1.191510
     45          1           0       -0.874425   -0.471795   -1.126989
 ---------------------------------------------------------------------

 SCF Done:  E(RB3LYP) =  -1297.94765417     A.U. after   13 cycles

 The electronic state is 1-A.
 Alpha  occ. eigenvalues --  -19.20061 -19.19588 -19.18004 -19.17450 -19.16995
 Alpha  occ. eigenvalues --  -19.16939 -19.15221 -19.14954 -19.14533 -19.14274
 Alpha  occ. eigenvalues --  -19.13733 -10.31511 -10.28260 -10.27860 -10.26888
 Alpha  occ. eigenvalues --  -10.26383 -10.26252 -10.25168 -10.24897 -10.24564
 Alpha  occ. eigenvalues --  -10.23750 -10.23315 -10.22416  -1.10848  -1.07842
 Alpha  occ. eigenvalues --   -1.06296  -1.05409  -1.03909  -1.03426  -1.03031
 Alpha  occ. eigenvalues --   -1.02527  -1.01069  -1.00077  -0.98749  -0.83781
 Alpha  occ. eigenvalues --   -0.82141  -0.78787  -0.77844  -0.72432  -0.69828
 Alpha  occ. eigenvalues --   -0.67567  -0.64230  -0.63794  -0.63079  -0.61629
 Alpha  occ. eigenvalues --   -0.58405  -0.57828  -0.55792  -0.55289  -0.54481
 Alpha  occ. eigenvalues --   -0.53702  -0.53368  -0.52469  -0.52026  -0.51097
 Alpha  occ. eigenvalues --   -0.50594  -0.49284  -0.47926  -0.47074  -0.46423
 Alpha  occ. eigenvalues --   -0.46342  -0.45162  -0.44354  -0.44122  -0.43813
 Alpha  occ. eigenvalues --   -0.42989  -0.42473  -0.40509  -0.39915  -0.39382
 Alpha  occ. eigenvalues --   -0.38492  -0.38394  -0.38017  -0.36949  -0.36335
 Alpha  occ. eigenvalues --   -0.35795  -0.34723  -0.33588  -0.33350  -0.32994
 Alpha  occ. eigenvalues --   -0.31919  -0.31227  -0.30890  -0.30681  -0.29548
 Alpha  occ. eigenvalues --   -0.29103  -0.28395  -0.27208  -0.26892  -0.26419
 Alpha  occ. eigenvalues --   -0.25969
 Alpha virt. eigenvalues --   -0.03851  -0.01990  -0.01236  -0.00418   0.00092
 Alpha virt. eigenvalues --    0.01430   0.01572   0.02482   0.02953   0.03195
 Alpha virt. eigenvalues --    0.03435   0.04062   0.04400   0.05224   0.05677

 Mulliken atomic charges:
              1
     1  O   -0.560268
     2  C   -0.142857
     3  C    0.137075
     4  O   -0.562684
     5  H    0.338201
     6  C   -0.034880
     7  O   -0.550946
     8  H    0.352938
     9  C   -0.319417
    10  O   -0.494915
    11  H    0.333205
    12  C    0.395874
    13  O   -0.295602
    14  C    0.135275
    15  O   -0.267570
    16  C    0.141735
    17  C    0.296770
    18  O   -0.600639
    19  H    0.392093
    20  C   -0.227830
    21  O   -0.528916
    22  H    0.363295
    23  C   -0.369640
    24  O   -0.507102
    25  H    0.328226
    26  C    0.094314
    27  O   -0.278274
    28  C    0.422293
    29  O   -0.479707
    30  H    0.320618
    31  H    0.115829
    32  H    0.130017
    33  H    0.110255
    34  H    0.123092
    35  H    0.114619
    36  H    0.159457
    37  H    0.129648
    38  H    0.343531
    39  H    0.142687
    40  H    0.168794
    41  H    0.119667
    42  H    0.118374
    43  H    0.123423
    44  H    0.125201
    45  H    0.144742
 Sum of Mulliken atomic charges =   0.00000

 Dipole moment (field-independent basis, Debye):
    X=             -9.1471    Y=             -2.4541    Z=              4.5185  Tot=             10.4933
 Quadrupole moment (field-independent basis, Debye-Ang):
   XX=           -124.8346   YY=           -132.0434   ZZ=           -138.0439
   XY=            -16.8874   XZ=              1.0796   YZ=              1.6710

  Exact polarizability: 225.927  -0.076 203.084  -1.638  -0.526 147.274
 Approx polarizability: 270.005  -1.046 265.731  -2.780  -2.305 239.789

 ******    8 imaginary frequencies (negative Signs) ******

                     1                      2                      3
                     A                      A                      A
 Frequencies --  -284.1979              -232.3185              -222.1366
 Red. masses --     1.7309                 1.9176                 1.1820
 Frc consts  --     0.0824                 0.0610                 0.0344
 IR Inten    --     5.5019                 4.0272               117.6491
 Raman Activ --     0.1472                 0.1484                 1.9202

                     4                      5                      6
                     A                      A                      A
 Frequencies --  -137.9840               -99.9002               -77.2942
 Red. masses --     4.0923                 1.3863                 4.6122
 Frc consts  --     0.0459                 0.0082                 0.0162
 IR Inten    --    12.0380                86.4324                 9.7508
 Raman Activ --     0.4351                 0.4283                 0.1517

                     7                      8                      9
                     A                      A                      A
 Frequencies --   -56.5658               -31.7409                45.3946
 Red. masses --     6.2694                 5.7262                 6.9390
 Frc consts  --     0.0118                 0.0034                 0.0084
 IR Inten    --     2.2225                 0.3384                 0.0344
 Raman Activ --     0.0974                 0.0854                 0.1187

                    10                     11                     12
                     A                      A                      A
 Frequencies --    58.7810                78.0112               104.7240
 Red. masses --     6.1193                 6.6258                 5.1345
 Frc consts  --     0.0125                 0.0238                 0.0332
 IR Inten    --     1.4960                 2.3589                 2.1358
 Raman Activ --     0.1099                 0.2214                 0.1470

                    13                     14                     15
                     A                      A                      A
 Frequencies --   113.3282               133.3100               158.3665
 Red. masses --     5.9405                 6.4703                 7.1104
 Frc consts  --     0.0450                 0.0677                 0.1051
 IR Inten    --     0.8681                 3.6726                 0.5363
 Raman Activ --     0.7195                 0.1756                 1.2479

                    16                     17                     18
                     A                      A                      A
 Frequencies --   180.0763               204.3518               233.6887
 Red. masses --     6.0256                 7.4703                 5.0416
 Frc consts  --     0.1151                 0.1838                 0.1622
 IR Inten    --     1.1697                 0.4289                 0.9182
 Raman Activ --     0.1426                 1.3442                 1.1263

                    19                     20                     21
                     A                      A                      A
 Frequencies --   246.3650               273.9749               287.2276
 Red. masses --     4.4185                 3.9940                 4.7757
 Frc consts  --     0.1580                 0.1766                 0.2321
 IR Inten    --     1.9802                 8.2741                 4.7223
 Raman Activ --     0.0523                 0.0343                 0.7636

                    22                     23                     24
                     A                      A                      A
 Frequencies --   311.8330               325.0082               336.2103
 Red. masses --     6.3522                 5.9406                 5.0745
 Frc consts  --     0.3639                 0.3697                 0.3380
 IR Inten    --     4.2677                 8.3727                 1.9395
 Raman Activ --     0.4747                 0.2534                 3.2606

                    25                     26                     27
                     A                      A                      A
 Frequencies --   345.0540               359.0289               381.6513
 Red. masses --     5.7841                 5.7182                 4.3578
 Frc consts  --     0.4058                 0.4343                 0.3740
 IR Inten    --     2.9641                10.6605                 7.7374
 Raman Activ --     0.6419                 2.5697                 3.4035

                    28                     29                     30
                     A                      A                      A
 Frequencies --   398.0500               411.7793               431.0839
 Red. masses --     6.0136                 4.7980                 5.3623
 Frc consts  --     0.5614                 0.4793                 0.5871
 IR Inten    --     6.4905                 2.1097                 1.4924
 Raman Activ --     4.6674                 2.9482                 3.5077

                    31                     32                     33
                     A                      A                      A
 Frequencies --   448.4427               469.9522               491.1238
 Red. masses --     7.3230                 4.3949                 3.8680
 Frc consts  --     0.8677                 0.5719                 0.5497
 IR Inten    --     7.7843                 6.4354                 2.9534
 Raman Activ --     4.5838                 3.0224                 0.2622

                    34                     35                     36
                     A                      A                      A
 Frequencies --   528.9474               549.4352               557.2580
 Red. masses --     4.8823                 5.1379                 3.1189
 Frc consts  --     0.8048                 0.9138                 0.5706
 IR Inten    --    17.0820                 8.5587                27.2625
 Raman Activ --     1.4565                 4.7499                 0.4639

                    37                     38                     39
                     A                      A                      A
 Frequencies --   586.2854               590.5190               614.6608
 Red. masses --     2.6795                 3.7342                 2.8392
 Frc consts  --     0.5427                 0.7672                 0.6320
 IR Inten    --    43.7996                44.3262                46.2834
 Raman Activ --     2.6706                 1.6520                 0.5419

                    40                     41                     42
                     A                      A                      A
 Frequencies --   634.8987               659.2734               692.2985
 Red. masses --     1.3652                 4.0434                 1.0624
 Frc consts  --     0.3242                 1.0355                 0.3000
 IR Inten    --    42.8606                 4.6235               106.9568
 Raman Activ --     1.1823                 0.4950                 1.6241

                    43                     44                     45
                     A                      A                      A
 Frequencies --   694.8998               720.3437               731.0452
 Red. masses --     4.0093                 1.1255                 1.1556
 Frc consts  --     1.1407                 0.3441                 0.3639
 IR Inten    --    15.1356                90.4888               131.5705
 Raman Activ --     0.7442                 1.5782                 1.6553

                    46                     47                     48
                     A                      A                      A
 Frequencies --   764.7186               826.2361               835.1844
 Red. masses --     1.1063                 2.4493                 3.1732
 Frc consts  --     0.3812                 0.9852                 1.3041
 IR Inten    --    98.5950                19.9536                81.9975
 Raman Activ --     1.7231                 7.8187                 3.5045

                    49                     50                     51
                     A                      A                      A
 Frequencies --   839.0936               867.8186               918.8319
 Red. masses --     1.1841                 2.3362                 5.8894
 Frc consts  --     0.4912                 1.0366                 2.9295
 IR Inten    --    25.7716                 5.8474               184.2512
 Raman Activ --     2.4254                 1.8296                 5.1669

                    52                     53                     54
                     A                      A                      A
 Frequencies --   931.9543               959.4801               973.3306
 Red. masses --     5.3074                 5.4833                 4.1200
 Frc consts  --     2.7160                 2.9742                 2.2997
 IR Inten    --   197.8258                38.1299                76.2712
 Raman Activ --     1.3775                 2.4723                 1.8112

                    55                     56                     57
                     A                      A                      A
 Frequencies --   982.5184               991.8266              1018.4070
 Red. masses --     5.3580                 4.6998                 4.2459
 Frc consts  --     3.0475                 2.7240                 2.5946
 IR Inten    --    37.2652               185.7545               116.6829
 Raman Activ --     3.1352                 4.0083                 4.5953

                    58                     59                     60
                     A                      A                      A
 Frequencies --  1039.1726              1046.5080              1052.0263
 Red. masses --     4.9178                 4.1913                 3.6205
 Frc consts  --     3.1289                 2.7045                 2.3609
 IR Inten    --    72.4226               101.2390               274.1849
 Raman Activ --     6.4619                 1.6186                 2.4189

                    61                     62                     63
                     A                      A                      A
 Frequencies --  1061.6302              1073.9395              1075.3348
 Red. masses --     3.8717                 4.4810                 4.1153
 Frc consts  --     2.5709                 3.0450                 2.8038
 IR Inten    --    56.0445                56.8025               113.1121
 Raman Activ --    13.0369                 1.2855                 7.0100

                    64                     65                     66
                     A                      A                      A
 Frequencies --  1082.4889              1101.6657              1111.3709
 Red. masses --     2.5792                 3.0909                 2.8605
 Frc consts  --     1.7807                 2.2102                 2.0817
 IR Inten    --    61.8502                15.3137                26.1631
 Raman Activ --     4.7093                 2.8679                 3.4007

                    67                     68                     69
                     A                      A                      A
 Frequencies --  1124.5817              1143.9625              1149.2642
 Red. masses --     2.4963                 2.5403                 2.8456
 Frc consts  --     1.8601                 1.9587                 2.2144
 IR Inten    --    53.3660                67.9834                20.1784
 Raman Activ --     8.0349                 5.5564                 1.9612

                    70                     71                     72
                     A                      A                      A
 Frequencies --  1151.0191              1156.1060              1173.3902
 Red. masses --     3.9650                 3.4155                 1.8863
 Frc consts  --     3.0950                 2.6897                 1.5302
 IR Inten    --    98.5991                 1.9558                 9.8533
 Raman Activ --     2.8170                 1.2051                 2.5253

                    73                     74                     75
                     A                      A                      A
 Frequencies --  1174.7041              1185.0349              1190.1498
 Red. masses --     1.6105                 2.0967                 2.0930
 Frc consts  --     1.3094                 1.7348                 1.7468
 IR Inten    --     9.4086                 5.0231                 5.9873
 Raman Activ --     3.8285                 6.8503                 1.4205

                    76                     77                     78
                     A                      A                      A
 Frequencies --  1206.8383              1222.2134              1225.5866
 Red. masses --     1.5272                 1.2596                 1.3489
 Frc consts  --     1.3105                 1.1086                 1.1938
 IR Inten    --     0.9977                 4.9438                14.2993
 Raman Activ --     2.4989                 2.1157                 1.5383

                    79                     80                     81
                     A                      A                      A
 Frequencies --  1237.1562              1258.3436              1261.2180
 Red. masses --     1.2946                 1.2645                 1.1970
 Frc consts  --     1.1674                 1.1797                 1.1218
 IR Inten    --     3.0860                10.4742                 8.3604
 Raman Activ --     2.3042                 2.1506                 2.3865

                    82                     83                     84
                     A                      A                      A
 Frequencies --  1270.0848              1279.9615              1280.8623
 Red. masses --     1.2868                 1.2747                 1.2307
 Frc consts  --     1.2230                 1.2305                 1.1896
 IR Inten    --     9.9513                12.1941                 8.4350
 Raman Activ --     1.8379                 1.8792                 1.7409

                    85                     86                     87
                     A                      A                      A
 Frequencies --  1297.2271              1308.2144              1319.4935
 Red. masses --     1.3031                 1.2051                 1.1496
 Frc consts  --     1.2920                 1.2152                 1.1793
 IR Inten    --    15.1604                 5.7687                 2.4073
 Raman Activ --     5.3236                 2.0369                 6.8803

                    88                     89                     90
                     A                      A                      A
 Frequencies --  1319.7992              1334.2307              1334.6231
 Red. masses --     1.1733                 1.2787                 1.2180
 Frc consts  --     1.2042                 1.3411                 1.2783
 IR Inten    --    15.7750                31.6558                41.0086
 Raman Activ --     1.7138                 4.2693                 1.7989

                    91                     92                     93
                     A                      A                      A
 Frequencies --  1352.3707              1359.5097              1360.9947
 Red. masses --     1.3280                 1.2835                 1.2090
 Frc consts  --     1.4310                 1.3977                 1.3195
 IR Inten    --    28.6120                24.6028                13.3152
 Raman Activ --     2.7573                 2.5562                 7.9748

                    94                     95                     96
                     A                      A                      A
 Frequencies --  1373.0738              1380.9634              1389.2249
 Red. masses --     1.2564                 1.3361                 1.3649
 Frc consts  --     1.3957                 1.5012                 1.5521
 IR Inten    --    13.7092                12.2800                36.0146
 Raman Activ --     3.7492                 1.9340                 0.6739

                    97                     98                     99
                     A                      A                      A
 Frequencies --  1399.5796              1405.0449              1409.5430
 Red. masses --     1.3280                 1.4521                 1.5351
 Frc consts  --     1.5327                 1.6890                 1.7970
 IR Inten    --     3.6536                13.6670                 6.4439
 Raman Activ --     1.5720                 8.8736                 7.0862

                   100                    101                    102
                     A                      A                      A
 Frequencies --  1414.6685              1442.7201              1459.1871
 Red. masses --     1.2095                 1.4057                 1.3605
 Frc consts  --     1.4262                 1.7239                 1.7067
 IR Inten    --     5.7407                15.9460                31.1045
 Raman Activ --     6.6400                 1.9139                 1.5096

                   103                    104                    105
                     A                      A                      A
 Frequencies --  1462.4872              1465.3741              1471.7577
 Red. masses --     1.2292                 1.0913                 1.3457
 Frc consts  --     1.5490                 1.3807                 1.7174
 IR Inten    --    32.4830                 8.7800                14.5600
 Raman Activ --     2.3657                 4.1225                 2.7746

                   106                    107                    108
                     A                      A                      A
 Frequencies --  1479.0831              1552.1133              3242.7885
 Red. masses --     1.1974                 1.2846                 1.0782
 Frc consts  --     1.5434                 1.8234                 6.6799
 IR Inten    --    12.9177               115.7681                10.0895
 Raman Activ --     4.0212                 1.8464                67.3468

                   109                    110                    111
                     A                      A                      A
 Frequencies --  3252.4945              3261.2210              3262.0248
 Red. masses --     1.0645                 1.0608                 1.0789
 Frc consts  --     6.6346                 6.6476                 6.7639
 IR Inten    --    16.4294                33.3787                16.9837
 Raman Activ --    58.1113                28.5088               185.6095

                   112                    113                    114
                     A                      A                      A
 Frequencies --  3267.2878              3272.7749              3273.0528
 Red. masses --     1.0798                 1.0808                 1.0816
 Frc consts  --     6.7918                 6.8205                 6.8270
 IR Inten    --     6.3170                12.2798                14.1269
 Raman Activ --    19.5067               236.6305                 8.6853

                   115                    116                    117
                     A                      A                      A
 Frequencies --  3281.5483              3281.9355              3289.3080
 Red. masses --     1.0848                 1.0846                 1.0851
 Frc consts  --     6.8826                 6.8831                 6.9174
 IR Inten    --    16.0234                26.3863                24.0181
 Raman Activ --    28.2045                26.8477               101.0390

                   118                    119                    120
                     A                      A                      A
 Frequencies --  3291.3899              3302.6108              3302.9133
 Red. masses --     1.0862                 1.0992                 1.0909
 Frc consts  --     6.9332                 7.0642                 7.0118
 IR Inten    --    86.4237                 9.2018                78.8506
 Raman Activ --    18.3501                52.7604                12.6226

                   121                    122                    123
                     A                      A                      A
 Frequencies --  3319.5051              3320.4054              3345.2003
 Red. masses --     1.0757                 1.0967                 1.0638
 Frc consts  --     6.9840                 7.1241                 7.0139
 IR Inten    --   433.8387               106.3775                33.0439
 Raman Activ --   137.3716               148.4066                15.3488

                   124                    125                    126
                     A                      A                      A
 Frequencies --  3361.1022              3366.8675              3377.1835
 Red. masses --     1.0669                 1.0664                 1.0650
 Frc consts  --     7.1013                 7.1226                 7.1567
 IR Inten    --    46.1029                40.7812                27.1024
 Raman Activ --   129.5800               168.0269               118.4796

                   127                    128                    129
                     A                      A                      A
 Frequencies --  3389.4052              3887.7357              3888.0061
 Red. masses --     1.0681                 1.0676                 1.0667
 Frc consts  --     7.2296                 9.5075                 9.5003
 IR Inten    --    85.8829               102.7432                42.1196
 Raman Activ --   134.6131                70.8571               146.1833

 - Thermochemistry -
 -------------------
 Temperature   298.150 Kelvin.  Pressure   1.00000 Atm.
 Atom     1 has atomic number  8 and mass  15.99491

 Molecular mass:   342.11621 amu.
 Principal axes and moments of inertia in atomic units:
                           1         2         3
     Eigenvalues --  4627.53396********************
           X            0.99995  -0.00984  -0.00003
           Y            0.00984   0.99995   0.00020
           Z            0.00003  -0.00020   1.00000
 This molecule is an asymmetric top.
 Rotational symmetry number  1.
 Warning -- assumption of classical behavior for rotation
           may cause significant error
 Rotational temperatures (Kelvin)      0.01872     0.00707     0.00536
 Rotational constants (GHZ):           0.39000     0.14724     0.11164
    8 imaginary frequencies ignored.
 Zero-point vibrational energy     972317.2 (Joules/Mol)
                                  232.38939 (Kcal/Mol)
 Warning -- explicit consideration of  31 degrees of freedom as
           vibrations may cause significant error
 Vibrational temperatures:     65.31    84.57   112.24   150.67   163.05
          (Kelvin)            191.80   227.85   259.09   294.02   336.23
                              354.46   394.19   413.26   448.66   467.61
                              483.73   496.46   516.56   549.11   572.70
                              592.46   620.23   645.21   676.16   706.62
                              761.04   790.51   801.77   843.53   849.62
                              884.36   913.48   948.55   996.06   999.80
                             1036.41  1051.81  1100.26  1188.77  1201.64
                             1207.27  1248.60  1321.99  1340.87  1380.48
                             1400.40  1413.62  1427.02  1465.26  1495.14
                             1505.69  1513.63  1527.45  1545.16  1547.16
                             1557.46  1585.05  1599.01  1618.02  1645.90
                             1653.53  1656.06  1663.38  1688.24  1690.14
                             1705.00  1712.36  1736.37  1758.49  1763.34
                             1779.99  1810.47  1814.61  1827.37  1841.58
                             1842.87  1866.42  1882.23  1898.45  1898.89
                             1919.66  1920.22  1945.76  1956.03  1958.17
                             1975.54  1986.90  1998.78  2013.68  2021.54
                             2028.02  2035.39  2075.75  2099.44  2104.19
                             2108.34  2117.53  2128.07  2233.14  4665.64
                             4679.61  4692.16  4693.32  4700.89  4708.79
                             4709.19  4721.41  4721.97  4732.57  4735.57
                             4751.71  4752.15  4776.02  4777.32  4812.99
                             4835.87  4844.17  4859.01  4876.59  5593.58
                             5593.97

 Zero-point correction=                           0.370336 (Hartree/Particle)
 Thermal correction to Energy=                    0.388390
 Thermal correction to Enthalpy=                  0.389334
 Thermal correction to Gibbs Free Energy=         0.324820
 Sum of electronic and zero-point Energies=          -1297.577318
 Sum of electronic and thermal Energies=             -1297.559264
 Sum of electronic and thermal Enthalpies=           -1297.558320
 Sum of electronic and thermal Free Energies=        -1297.622834

                     E (Thermal)             CV                S
                      KCal/Mol        Cal/Mol-Kelvin    Cal/Mol-Kelvin
 Total                  243.718             74.635            135.781
 Electronic               0.000              0.000              0.000
 Translational            0.889              2.981             43.384
 Rotational               0.889              2.981             35.171
 Vibrational            241.941             68.673             57.226
 Vibration     1          0.595              1.979              5.009
 Vibration     2          0.596              1.974              4.498
 Vibration     3          0.599              1.964              3.940
 Vibration     4          0.605              1.945              3.364
 Vibration     5          0.607              1.938              3.211
 Vibration     6          0.613              1.920              2.898
 Vibration     7          0.621              1.893              2.569
 Vibration     8          0.629              1.867              2.328
 Vibration     9          0.640              1.834              2.094
 Vibration    10          0.654              1.789              1.850
 Vibration    11          0.661              1.769              1.756
 Vibration    12          0.676              1.721              1.571
 Vibration    13          0.684              1.697              1.490
 Vibration    14          0.700              1.651              1.353
 Vibration    15          0.709              1.625              1.285
 Vibration    16          0.717              1.603              1.230
 Vibration    17          0.723              1.585              1.189
 Vibration    18          0.734              1.557              1.126
 Vibration    19          0.751              1.509              1.033
 Vibration    20          0.764              1.474              0.970
 Vibration    21          0.776              1.445              0.920
 Vibration    22          0.792              1.403              0.855
 Vibration    23          0.807              1.364              0.800
 Vibration    24          0.827              1.317              0.738
 Vibration    25          0.847              1.270              0.681
 Vibration    26          0.884              1.186              0.590
 Vibration    27          0.905              1.141              0.545
 Vibration    28          0.913              1.124              0.529
 Vibration    29          0.943              1.061              0.474
 Vibration    30          0.948              1.052              0.466
 Vibration    31          0.974              1.001              0.425

 Normal termination of Gaussian 09 at Fri Apr  1 09:38:26 2016.
