 Gaussian 09, Revision B.01,
 Gaussian 09:  EM64L-G09RevB.01 12-Aug-2010

 -------------------------------------------------
 # freq=raman b3lyp/6-31+g(2d,p) geom=connectivity
 -------------------------------------------------

 -----------------
 300 6439/6439.com
 -----------------
 Symbolic Z-matrix:
 Charge =  0 Multiplicity = 1

                         Standard orientation:
 ---------------------------------------------------------------------
 Center     Atomic      Atomic             Coordinates (Angstroms)
 Number     Number       Type             X           Y           Z
 ---------------------------------------------------------------------
      1          8           0        5.054611   -0.466772   -0.453099
      2          6           0        3.814166   -0.118518    0.179090
      3          6           0        3.261706    1.233767   -0.240387
      4          8           0        4.257888    2.234390    0.015615
      5          1           0        5.111298    1.914157   -0.394623
      6          6           0        1.864681    1.569468    0.255320
      7          8           0        1.347408    2.790630   -0.292678
      8          1           0        0.378183    2.860404   -0.057355
      9          6           0        3.069729   -2.505195    0.153395
     10          8           0        4.137055   -3.261551   -0.437382
     11          1           0        3.836005   -4.118658   -0.855620
     12          6           0        2.663261   -1.065412   -0.116294
     13          8           0        1.373212   -0.799349    0.452813
     14          6           0        0.854872    0.460819    0.003133
     15          8           0       -0.397673    0.556217    0.695077
     16          6           0       -1.548744    0.148428   -0.059140
     17          6           0       -2.074889   -1.188075    0.436820
     18          8           0       -1.070959   -2.206981    0.324007
     19          1           0       -0.308274   -1.944191    0.915935
     20          6           0       -3.422579   -1.517562   -0.185469
     21          8           0       -3.881687   -2.826263    0.184411
     22          1           0       -4.707180   -3.125477   -0.296024
     23          6           0       -2.288149    2.633228   -0.254237
     24          8           0       -1.129594    3.275957    0.298113
     25          1           0       -1.332807    4.255570    0.286083
     26          6           0       -2.567529    1.231197    0.260056
     27          8           0       -3.806401    0.865349   -0.365138
     28          6           0       -4.353951   -0.361682    0.138482
     29          8           0       -5.405573   -0.464593   -0.831930
     30          1           0       -6.236363   -0.644121   -0.385659
     31          1           0       -3.141442    3.243047   -0.042315
     32          1           0       -2.167222    2.581655   -1.316130
     33          1           0       -2.710411    1.271862    1.319693
     34          1           0       -1.333709    0.117391   -1.106850
     35          1           0       -2.255807   -1.067018    1.484443
     36          1           0       -3.287520   -1.523534   -1.246895
     37          1           0       -4.693841   -0.318305    1.152136
     38          1           0        5.680762   -0.762326    0.211870
     39          1           0        3.258140   -2.543198    1.205990
     40          1           0        2.187902   -3.079020   -0.041556
     41          1           0        2.517895   -1.003330   -1.174554
     42          1           0        3.972703   -0.102863    1.237164
     43          1           0        3.174422    1.185890   -1.305746
     44          1           0        1.930968    1.701625    1.315056
     45          1           0        0.664566    0.401401   -1.048129
 ---------------------------------------------------------------------

 SCF Done:  E(RB3LYP) =  -1297.96453591     A.U. after   13 cycles

 The electronic state is 1-A.
 Alpha  occ. eigenvalues --  -19.19286 -19.18058 -19.17871 -19.17738 -19.17450
 Alpha  occ. eigenvalues --  -19.17098 -19.16599 -19.15775 -19.14556 -19.14246
 Alpha  occ. eigenvalues --  -19.12588 -10.30849 -10.30180 -10.25709 -10.25608
 Alpha  occ. eigenvalues --  -10.25552 -10.25188 -10.24594 -10.24582 -10.24545
 Alpha  occ. eigenvalues --  -10.24187 -10.23761 -10.23407  -1.09956  -1.09314
 Alpha  occ. eigenvalues --   -1.06188  -1.04994  -1.03787  -1.03243  -1.02323
 Alpha  occ. eigenvalues --   -1.01854  -1.01296  -1.00889  -0.99583  -0.81972
 Alpha  occ. eigenvalues --   -0.80281  -0.79938  -0.77764  -0.71989  -0.69709
 Alpha  occ. eigenvalues --   -0.67270  -0.64618  -0.63467  -0.62005  -0.61768
 Alpha  occ. eigenvalues --   -0.59814  -0.56875  -0.55918  -0.55041  -0.54747
 Alpha  occ. eigenvalues --   -0.53697  -0.53211  -0.53024  -0.51945  -0.50941
 Alpha  occ. eigenvalues --   -0.50534  -0.49922  -0.48945  -0.48350  -0.46438
 Alpha  occ. eigenvalues --   -0.46308  -0.45051  -0.44219  -0.43536  -0.42895
 Alpha  occ. eigenvalues --   -0.42385  -0.41366  -0.41298  -0.40068  -0.39177
 Alpha  occ. eigenvalues --   -0.38558  -0.38311  -0.38070  -0.36092  -0.35013
 Alpha  occ. eigenvalues --   -0.34951  -0.34328  -0.33969  -0.33549  -0.33401
 Alpha  occ. eigenvalues --   -0.32468  -0.31439  -0.30860  -0.30490  -0.29942
 Alpha  occ. eigenvalues --   -0.28835  -0.28298  -0.28001  -0.27015  -0.26471
 Alpha  occ. eigenvalues --   -0.25698
 Alpha virt. eigenvalues --   -0.02108  -0.01937  -0.01447  -0.00294   0.00365
 Alpha virt. eigenvalues --    0.00683   0.01827   0.02161   0.02591   0.03630
 Alpha virt. eigenvalues --    0.03817   0.04111   0.05027   0.05310   0.05467

 Mulliken atomic charges:
              1
     1  O   -0.524384
     2  C   -0.179216
     3  C    0.247387
     4  O   -0.567123
     5  H    0.346472
     6  C   -0.036841
     7  O   -0.597827
     8  H    0.445351
     9  C   -0.406676
    10  O   -0.530158
    11  H    0.341522
    12  C    0.456444
    13  O   -0.275155
    14  C    0.008245
    15  O   -0.223051
    16  C    0.584555
    17  C   -0.007759
    18  O   -0.511403
    19  H    0.355209
    20  C    0.020362
    21  O   -0.562293
    22  H    0.338465
    23  C   -0.261460
    24  O   -0.558805
    25  H    0.362128
    26  C   -0.182200
    27  O   -0.212685
    28  C    0.219797
    29  O   -0.521829
    30  H    0.324823
    31  H    0.148043
    32  H    0.159552
    33  H    0.119663
    34  H    0.110643
    35  H    0.109549
    36  H    0.130642
    37  H    0.138621
    38  H    0.345166
    39  H    0.138969
    40  H    0.138836
    41  H    0.102066
    42  H    0.117176
    43  H    0.114853
    44  H    0.121097
    45  H    0.113231
 Sum of Mulliken atomic charges =   0.00000

 Dipole moment (field-independent basis, Debye):
    X=             -4.2619    Y=             -0.2600    Z=              1.1577  Tot=              4.4240
 Quadrupole moment (field-independent basis, Debye-Ang):
   XX=           -118.1485   YY=           -137.3284   ZZ=           -138.2214
   XY=            -13.9889   XZ=             -1.7626   YZ=              3.9900

  Exact polarizability: 234.593   0.733 197.991   1.808   0.139 145.154
 Approx polarizability: 275.853  -0.244 257.048   3.065   1.176 242.716

 ******    7 imaginary frequencies (negative Signs) ******

                     1                      2                      3
                     A                      A                      A
 Frequencies --  -347.2768              -287.7068              -223.9628
 Red. masses --     1.5605                 1.1560                 1.5386
 Frc consts  --     0.1109                 0.0564                 0.0455
 IR Inten    --     4.6759               102.7836                32.6191
 Raman Activ --     0.1441                 1.0357                 0.1592

                     4                      5                      6
                     A                      A                      A
 Frequencies --  -223.3659               -77.7678               -62.7971
 Red. masses --     1.3008                 7.0235                 5.8474
 Frc consts  --     0.0382                 0.0250                 0.0136
 IR Inten    --    70.4138                 1.7388                 0.1858
 Raman Activ --     0.5415                 0.0455                 0.1039

                     7                      8                      9
                     A                      A                      A
 Frequencies --   -40.5049                42.1749                72.9267
 Red. masses --     6.9609                 6.9401                 6.7132
 Frc consts  --     0.0067                 0.0073                 0.0210
 IR Inten    --     1.9773                 0.4162                 0.8426
 Raman Activ --     0.0270                 0.0477                 0.0991

                    10                     11                     12
                     A                      A                      A
 Frequencies --    86.0051                93.0757               107.8719
 Red. masses --     6.7636                 5.7615                 5.7927
 Frc consts  --     0.0295                 0.0294                 0.0397
 IR Inten    --     0.1782                 5.0868                 1.6185
 Raman Activ --     0.1272                 0.1696                 0.1256

                    13                     14                     15
                     A                      A                      A
 Frequencies --   150.6852               174.4248               183.3113
 Red. masses --     6.2793                 6.1201                 7.5031
 Frc consts  --     0.0840                 0.1097                 0.1485
 IR Inten    --     2.6714                 2.5238                 0.3073
 Raman Activ --     0.4291                 0.6243                 0.4695

                    16                     17                     18
                     A                      A                      A
 Frequencies --   218.1439               229.2013               263.3048
 Red. masses --     7.2622                 5.8485                 4.3910
 Frc consts  --     0.2036                 0.1810                 0.1794
 IR Inten    --     0.2927                 1.9253                18.3031
 Raman Activ --     3.3684                 0.2107                 0.3592

                    19                     20                     21
                     A                      A                      A
 Frequencies --   271.8902               280.4684               295.6519
 Red. masses --     5.0111                 5.4601                 5.5731
 Frc consts  --     0.2183                 0.2531                 0.2870
 IR Inten    --     3.4673                 1.2706                 4.4326
 Raman Activ --     0.1848                 0.0659                 2.5838

                    22                     23                     24
                     A                      A                      A
 Frequencies --   305.1237               308.6619               321.4349
 Red. masses --     5.5772                 6.5904                 5.9015
 Frc consts  --     0.3059                 0.3699                 0.3593
 IR Inten    --     2.0703                 4.3482                 1.9588
 Raman Activ --     0.2981                 3.2451                 2.2565

                    25                     26                     27
                     A                      A                      A
 Frequencies --   350.0411               358.0088               373.1852
 Red. masses --     6.0998                 4.2525                 6.3667
 Frc consts  --     0.4404                 0.3211                 0.5224
 IR Inten    --    14.2866                 2.0123                 0.5883
 Raman Activ --     2.0153                 0.0853                 1.1304

                    28                     29                     30
                     A                      A                      A
 Frequencies --   401.8423               417.0041               423.7539
 Red. masses --     4.0861                 6.1806                 6.3035
 Frc consts  --     0.3888                 0.6332                 0.6669
 IR Inten    --     9.8142                 9.7267                 0.2746
 Raman Activ --     3.2239                 3.2056                 8.2552

                    31                     32                     33
                     A                      A                      A
 Frequencies --   434.9423               481.0972               488.5954
 Red. masses --     4.4627                 5.5085                 4.2918
 Frc consts  --     0.4974                 0.7512                 0.6037
 IR Inten    --     1.7795                 5.3035                 8.8710
 Raman Activ --     1.2737                 1.0543                 3.1302

                    34                     35                     36
                     A                      A                      A
 Frequencies --   503.7196               519.7030               558.3207
 Red. masses --     3.4558                 3.2905                 4.0525
 Frc consts  --     0.5166                 0.5236                 0.7443
 IR Inten    --    22.7534                 3.7964                29.6718
 Raman Activ --     1.2742                 5.7026                 1.7453

                    37                     38                     39
                     A                      A                      A
 Frequencies --   590.1975               591.5448               612.4097
 Red. masses --     2.7221                 6.9259                 1.5869
 Frc consts  --     0.5587                 1.4279                 0.3507
 IR Inten    --    66.2796                 2.3493                51.3347
 Raman Activ --     0.3687                 0.5088                 1.2511

                    40                     41                     42
                     A                      A                      A
 Frequencies --   624.0796               640.5158               704.9550
 Red. masses --     3.6743                 2.3494                 4.5865
 Frc consts  --     0.8431                 0.5679                 1.3429
 IR Inten    --     9.3267                52.5842                13.4252
 Raman Activ --     0.1727                 2.5890                 0.3302

                    43                     44                     45
                     A                      A                      A
 Frequencies --   706.1919               728.3990               732.2105
 Red. masses --     1.0923                 1.0936                 1.0700
 Frc consts  --     0.3209                 0.3418                 0.3380
 IR Inten    --    87.9110               177.3843                59.4153
 Raman Activ --     2.2780                 5.8686                 1.6319

                    46                     47                     48
                     A                      A                      A
 Frequencies --   736.3925               837.7118               844.5932
 Red. masses --     1.0955                 1.7732                 1.3931
 Frc consts  --     0.3500                 0.7332                 0.5855
 IR Inten    --   165.7758                 4.7685                13.3864
 Raman Activ --     2.0236                 0.7608                 0.5123

                    49                     50                     51
                     A                      A                      A
 Frequencies --   879.7690               921.4624               941.7029
 Red. masses --     1.2494                 5.8120                 5.6076
 Frc consts  --     0.5698                 2.9076                 2.9299
 IR Inten    --    31.0349               187.6045                43.8762
 Raman Activ --     0.3366                 3.9574                 0.4401

                    52                     53                     54
                     A                      A                      A
 Frequencies --   977.8313               979.6910               985.9973
 Red. masses --     7.4271                 5.1576                 5.1910
 Frc consts  --     4.1840                 2.9166                 2.9734
 IR Inten    --    44.6322               192.1604               115.6543
 Raman Activ --     2.2780                 0.9729                 1.3315

                    55                     56                     57
                     A                      A                      A
 Frequencies --   991.9995              1005.7491              1018.8476
 Red. masses --     6.3392                 5.3201                 6.4415
 Frc consts  --     3.6754                 3.1707                 3.9396
 IR Inten    --   245.8971                15.1108               236.8197
 Raman Activ --     3.0825                 3.0604                 2.8497

                    58                     59                     60
                     A                      A                      A
 Frequencies --  1031.9280              1056.0143              1061.2340
 Red. masses --     6.3555                 3.9846                 4.4620
 Frc consts  --     3.9875                 2.6180                 2.9607
 IR Inten    --    43.1434                23.3561                66.7934
 Raman Activ --     3.1145                 4.4694                11.8463

                    61                     62                     63
                     A                      A                      A
 Frequencies --  1065.2310              1070.6643              1078.9558
 Red. masses --     3.0944                 5.2903                 4.1068
 Frc consts  --     2.0688                 3.5731                 2.8168
 IR Inten    --    21.9588               186.7973                57.6661
 Raman Activ --    11.0579                 2.6915                 5.0026

                    64                     65                     66
                     A                      A                      A
 Frequencies --  1091.0940              1109.4025              1114.1579
 Red. masses --     3.0736                 3.0491                 3.5974
 Frc consts  --     2.1558                 2.2110                 2.6311
 IR Inten    --    87.2440                26.1782                17.0638
 Raman Activ --     2.7306                 7.5437                 9.7906

                    67                     68                     69
                     A                      A                      A
 Frequencies --  1116.6039              1125.2341              1133.2449
 Red. masses --     2.5615                 1.9536                 2.0588
 Frc consts  --     1.8817                 1.4574                 1.5578
 IR Inten    --    35.6548                28.5854               105.9574
 Raman Activ --     3.6102                 4.5742                 5.3132

                    70                     71                     72
                     A                      A                      A
 Frequencies --  1142.7279              1143.7602              1169.2329
 Red. masses --     2.5345                 2.3596                 1.8079
 Frc consts  --     1.9500                 1.8187                 1.4562
 IR Inten    --    10.4590                36.9651                31.1777
 Raman Activ --     3.0995                 4.3501                 2.2812

                    73                     74                     75
                     A                      A                      A
 Frequencies --  1170.3486              1173.2080              1184.5635
 Red. masses --     2.0611                 2.0698                 1.4622
 Frc consts  --     1.6634                 1.6786                 1.2088
 IR Inten    --    14.1328                13.3804                19.2727
 Raman Activ --     3.1419                 5.1623                 5.9394

                    76                     77                     78
                     A                      A                      A
 Frequencies --  1195.1643              1218.0931              1224.1523
 Red. masses --     1.6823                 1.5424                 1.3584
 Frc consts  --     1.4159                 1.3483                 1.1993
 IR Inten    --     2.7540                 1.2502                23.3903
 Raman Activ --     1.2925                 1.8931                 1.5170

                    79                     80                     81
                     A                      A                      A
 Frequencies --  1238.5849              1248.7820              1261.6599
 Red. masses --     1.2905                 1.3285                 1.1916
 Frc consts  --     1.1664                 1.2206                 1.1176
 IR Inten    --     8.5927                10.3187                13.0374
 Raman Activ --     0.9160                 0.9759                 3.6218

                    82                     83                     84
                     A                      A                      A
 Frequencies --  1274.6347              1278.1036              1280.5943
 Red. masses --     1.2217                 1.2396                 1.2898
 Frc consts  --     1.1695                 1.1931                 1.2462
 IR Inten    --     3.8548                12.4399                10.0139
 Raman Activ --     5.6352                 1.9546                 0.8608

                    85                     86                     87
                     A                      A                      A
 Frequencies --  1287.8627              1307.2357              1311.6571
 Red. masses --     1.3046                 1.3806                 1.2975
 Frc consts  --     1.2749                 1.3900                 1.3152
 IR Inten    --     2.4831                23.4376                18.8851
 Raman Activ --     0.6309                 4.3480                 2.0192

                    88                     89                     90
                     A                      A                      A
 Frequencies --  1322.8930              1329.2073              1346.7448
 Red. masses --     1.2995                 1.3581                 1.1669
 Frc consts  --     1.3400                 1.4137                 1.2469
 IR Inten    --     4.7327                23.2093                 7.0150
 Raman Activ --     8.1768                 4.9774                14.3825

                    91                     92                     93
                     A                      A                      A
 Frequencies --  1351.6413              1354.2116              1356.3900
 Red. masses --     1.2221                 1.4047                 1.2180
 Frc consts  --     1.3155                 1.5178                 1.3203
 IR Inten    --    13.8092                 5.0767                67.9167
 Raman Activ --     0.9209                 2.1475                 2.2457

                    94                     95                     96
                     A                      A                      A
 Frequencies --  1357.3108              1374.1755              1383.3371
 Red. masses --     1.2554                 1.6699                 1.4136
 Frc consts  --     1.3627                 1.8579                 1.5937
 IR Inten    --    39.6882                 8.3847                 9.9766
 Raman Activ --     4.7452                 8.0953                 4.0237

                    97                     98                     99
                     A                      A                      A
 Frequencies --  1389.6257              1398.0563              1402.5111
 Red. masses --     1.1824                 1.3219                 1.3884
 Frc consts  --     1.3453                 1.5223                 1.6091
 IR Inten    --    11.9247                 4.2509                18.2369
 Raman Activ --     2.6554                 5.7429                 2.1447

                   100                    101                    102
                     A                      A                      A
 Frequencies --  1407.0440              1439.2263              1448.5307
 Red. masses --     1.3153                 1.2560                 1.0967
 Frc consts  --     1.5342                 1.5328                 1.3558
 IR Inten    --    19.2541                36.0740                 2.4266
 Raman Activ --     5.0666                 2.5539                 3.0672

                   103                    104                    105
                     A                      A                      A
 Frequencies --  1450.7223              1471.6128              1474.1079
 Red. masses --     1.3817                 1.2054                 1.2235
 Frc consts  --     1.7133                 1.5380                 1.5665
 IR Inten    --    32.5585                26.0279                11.8438
 Raman Activ --     1.9659                 3.7881                 1.8959

                   106                    107                    108
                     A                      A                      A
 Frequencies --  1481.1700              1510.7743              3218.6766
 Red. masses --     1.3301                 1.2387                 1.0694
 Frc consts  --     1.7193                 1.6658                 6.5274
 IR Inten    --    25.0529                49.9708              1196.4223
 Raman Activ --     2.4346                 1.4162               165.9348

                   109                    110                    111
                     A                      A                      A
 Frequencies --  3245.0677              3252.8333              3260.3116
 Red. masses --     1.0621                 1.0762                 1.0812
 Frc consts  --     6.5898                 6.7093                 6.7716
 IR Inten    --    13.8463                39.2237                18.2670
 Raman Activ --    92.1782                10.8397                12.9537

                   112                    113                    114
                     A                      A                      A
 Frequencies --  3261.0272              3265.4592              3270.6862
 Red. masses --     1.0791                 1.0588                 1.0819
 Frc consts  --     6.7611                 6.6517                 6.8190
 IR Inten    --    11.1348                 8.1120                13.8579
 Raman Activ --   206.0537               150.0643                22.6658

                   115                    116                    117
                     A                      A                      A
 Frequencies --  3278.3674              3280.7119              3285.1121
 Red. masses --     1.0837                 1.0857                 1.0843
 Frc consts  --     6.8623                 6.8846                 6.8944
 IR Inten    --    11.3685                 4.1741                 5.8875
 Raman Activ --    51.7923                65.6806                35.2590

                   118                    119                    120
                     A                      A                      A
 Frequencies --  3290.8619              3300.1237              3305.4888
 Red. masses --     1.0873                 1.0865                 1.0991
 Frc consts  --     6.9378                 6.9717                 7.0756
 IR Inten    --    72.0443                 6.7241                27.3449
 Raman Activ --     6.4309                75.8520                26.4701

                   121                    122                    123
                     A                      A                      A
 Frequencies --  3306.0215              3323.3178              3353.3675
 Red. masses --     1.0912                 1.1067                 1.0661
 Frc consts  --     7.0268                 7.2015                 7.0634
 IR Inten    --   113.7584                42.8176               199.7948
 Raman Activ --    27.0071                37.6175               105.1625

                   124                    125                    126
                     A                      A                      A
 Frequencies --  3360.0168              3366.8844              3368.8551
 Red. masses --     1.0670                 1.0710                 1.0678
 Frc consts  --     7.0976                 7.1529                 7.1401
 IR Inten    --    41.1773                48.6478                56.4004
 Raman Activ --   187.1240               120.6012               157.2790

                   127                    128                    129
                     A                      A                      A
 Frequencies --  3372.4308              3890.6146              3891.9399
 Red. masses --     1.0657                 1.0672                 1.0676
 Frc consts  --     7.1409                 9.5178                 9.5279
 IR Inten    --    48.4492                55.1977                87.5965
 Raman Activ --   101.3614               135.4648                92.5936

 - Thermochemistry -
 -------------------
 Temperature   298.150 Kelvin.  Pressure   1.00000 Atm.
 Atom     1 has atomic number  8 and mass  15.99491

 Molecular mass:   342.11621 amu.
 Principal axes and moments of inertia in atomic units:
                           1         2         3
     Eigenvalues --  4437.41425********************
           X            0.99997  -0.00744  -0.00037
           Y            0.00744   0.99997  -0.00053
           Z            0.00038   0.00052   1.00000
 This molecule is an asymmetric top.
 Rotational symmetry number  1.
 Warning -- assumption of classical behavior for rotation
           may cause significant error
 Rotational temperatures (Kelvin)      0.01952     0.00699     0.00529
 Rotational constants (GHZ):           0.40671     0.14567     0.11022
    7 imaginary frequencies ignored.
 Zero-point vibrational energy     973332.1 (Joules/Mol)
                                  232.63195 (Kcal/Mol)
 Warning -- explicit consideration of  32 degrees of freedom as
           vibrations may cause significant error
 Vibrational temperatures:     60.68   104.93   123.74   133.91   155.20
          (Kelvin)            216.80   250.96   263.74   313.86   329.77
                              378.84   391.19   403.53   425.38   439.00
                              444.10   462.47   503.63   515.09   536.93
                              578.16   599.98   609.69   625.78   692.19
                              702.98   724.74   747.74   803.30   849.16
                              851.10   881.12   897.91   921.56  1014.27
                             1016.05  1048.00  1053.49  1059.50  1205.28
                             1215.18  1265.79  1325.78  1354.90  1406.88
                             1409.56  1418.63  1427.26  1447.05  1465.89
                             1484.71  1519.37  1526.88  1532.63  1540.45
                             1552.37  1569.84  1596.18  1603.02  1606.54
                             1618.96  1630.48  1644.13  1645.61  1682.26
                             1683.87  1687.98  1704.32  1719.57  1752.56
                             1761.28  1782.05  1796.72  1815.24  1833.91
                             1838.90  1842.49  1852.94  1880.82  1887.18
                             1903.35  1912.43  1937.66  1944.71  1948.41
                             1951.54  1952.87  1977.13  1990.31  1999.36
                             2011.49  2017.90  2024.42  2070.72  2084.11
                             2087.26  2117.32  2120.91  2131.07  2173.66
                             4630.95  4668.92  4680.10  4690.86  4691.88
                             4698.26  4705.78  4716.83  4720.21  4726.54
                             4734.81  4748.14  4755.86  4756.62  4781.51
                             4824.74  4834.31  4844.19  4847.03  4852.17
                             5597.72  5599.63

 Zero-point correction=                           0.370723 (Hartree/Particle)
 Thermal correction to Energy=                    0.389168
 Thermal correction to Enthalpy=                  0.390112
 Thermal correction to Gibbs Free Energy=         0.325148
 Sum of electronic and zero-point Energies=          -1297.593813
 Sum of electronic and thermal Energies=             -1297.575368
 Sum of electronic and thermal Enthalpies=           -1297.574424
 Sum of electronic and thermal Free Energies=        -1297.639388

                     E (Thermal)             CV                S
                      KCal/Mol        Cal/Mol-Kelvin    Cal/Mol-Kelvin
 Total                  244.207             76.283            136.728
 Electronic               0.000              0.000              0.000
 Translational            0.889              2.981             43.384
 Rotational               0.889              2.981             35.153
 Vibrational            242.429             70.321             58.191
 Vibration     1          0.595              1.980              5.154
 Vibration     2          0.599              1.967              4.073
 Vibration     3          0.601              1.959              3.749
 Vibration     4          0.602              1.954              3.594
 Vibration     5          0.606              1.943              3.307
 Vibration     6          0.618              1.902              2.664
 Vibration     7          0.627              1.874              2.387
 Vibration     8          0.631              1.863              2.294
 Vibration     9          0.646              1.813              1.974
 Vibration    10          0.652              1.796              1.885
 Vibration    11          0.670              1.740              1.640
 Vibration    12          0.675              1.725              1.584
 Vibration    13          0.680              1.710              1.531
 Vibration    14          0.690              1.682              1.441
 Vibration    15          0.696              1.664              1.389
 Vibration    16          0.698              1.657              1.369
 Vibration    17          0.707              1.632              1.303
 Vibration    18          0.727              1.575              1.166
 Vibration    19          0.733              1.559              1.131
 Vibration    20          0.745              1.527              1.067
 Vibration    21          0.767              1.466              0.956
 Vibration    22          0.780              1.433              0.902
 Vibration    23          0.786              1.419              0.879
 Vibration    24          0.796              1.394              0.843
 Vibration    25          0.837              1.292              0.707
 Vibration    26          0.844              1.275              0.687
 Vibration    27          0.859              1.242              0.649
 Vibration    28          0.875              1.206              0.611
 Vibration    29          0.914              1.122              0.527
 Vibration    30          0.948              1.053              0.467
 Vibration    31          0.949              1.050              0.464
 Vibration    32          0.972              1.006              0.429

 Normal termination of Gaussian 09 at Wed Mar 23 07:07:33 2016.
