 Gaussian 09, Revision B.01,
 Gaussian 09:  EM64L-G09RevB.01 12-Aug-2010

 -------------------------------------------------
 # freq=raman b3lyp/6-31+g(2d,p) geom=connectivity
 -------------------------------------------------

 -----------------
 493 9000/9000.com
 -----------------
 Symbolic Z-matrix:
 Charge =  0 Multiplicity = 1

                         Standard orientation:
 ---------------------------------------------------------------------
 Center     Atomic      Atomic             Coordinates (Angstroms)
 Number     Number       Type             X           Y           Z
 ---------------------------------------------------------------------
      1          8           0       -5.079476   -0.499122    0.356470
      2          6           0       -3.771279   -0.115749   -0.093218
      3          6           0       -3.237094    1.240948    0.336131
      4          8           0       -4.173120    2.224494   -0.128881
      5          1           0       -5.143260    2.111687    0.089159
      6          6           0       -1.849581    1.552606   -0.200958
      7          8           0       -1.355028    2.833145    0.219102
      8          1           0       -0.406453    2.955980   -0.072684
      9          6           0       -2.835586   -2.544705   -0.090911
     10          8           0       -4.091504   -3.236700   -0.049357
     11          1           0       -3.994332   -4.226425   -0.158107
     12          6           0       -2.693255   -1.094554    0.343174
     13          8           0       -1.399594   -0.789743   -0.199405
     14          6           0       -0.876124    0.472202    0.238962
     15          8           0        0.319169    0.647849   -0.535467
     16          6           0        1.536074    0.234446    0.103983
     17          6           0        1.930401   -1.159171   -0.356327
     18          8           0        0.963188   -2.177215   -0.061676
     19          1           0        0.074294   -1.763680   -0.261345
     20          6           0        3.277455   -1.509808    0.253165
     21          8           0        3.634454   -2.793356   -0.282639
     22          1           0        4.526728   -3.080800    0.063039
     23          6           0        2.381921    2.657799    0.146528
     24          8           0        1.275651    3.408233   -0.375386
     25          1           0        1.317353    4.371780   -0.112176
     26          6           0        2.607135    1.227605   -0.317984
     27          8           0        3.869101    0.858277    0.256814
     28          6           0        4.312839   -0.456807   -0.107491
     29          8           0        5.510386   -0.759578    0.622903
     30          1           0        6.220967   -0.952053    0.006763
     31          1           0        4.512516   -0.492129   -1.158101
     32          1           0        3.185592   -1.576024    1.317156
     33          1           0        2.052357   -1.126968   -1.418866
     34          1           0        1.417181    0.251317    1.167223
     35          1           0        2.692144    1.216359   -1.384543
     36          1           0        3.272190    3.207974   -0.076248
     37          1           0       -5.630958   -0.704985   -0.401876
     38          1           0       -2.152981   -3.112050    0.506642
     39          1           0       -2.627996   -1.066717    1.410819
     40          1           0       -3.794156   -0.122329   -1.162953
     41          1           0       -2.489756   -2.597435   -1.102109
     42          1           0       -3.206013    1.274571    1.405151
     43          1           0       -1.896106    1.546661   -1.269930
     44          1           0       -0.687417    0.493250    1.291979
     45          1           0        2.274846    2.632881    1.210865
 ---------------------------------------------------------------------

 SCF Done:  E(RB3LYP) =  -1297.99828119     A.U. after   13 cycles

 The electronic state is 1-A.
 Alpha  occ. eigenvalues --  -19.18739 -19.18643 -19.18293 -19.18219 -19.18017
 Alpha  occ. eigenvalues --  -19.16696 -19.15868 -19.15534 -19.14410 -19.13692
 Alpha  occ. eigenvalues --  -19.13335 -10.30678 -10.30582 -10.26454 -10.25501
 Alpha  occ. eigenvalues --  -10.25456 -10.25440 -10.24915 -10.24589 -10.24432
 Alpha  occ. eigenvalues --  -10.24349 -10.23886 -10.23553  -1.10379  -1.09015
 Alpha  occ. eigenvalues --   -1.05396  -1.04810  -1.04042  -1.03676  -1.02678
 Alpha  occ. eigenvalues --   -1.01852  -1.01451  -1.00295  -0.99674  -0.82319
 Alpha  occ. eigenvalues --   -0.80451  -0.79493  -0.78387  -0.71829  -0.69842
 Alpha  occ. eigenvalues --   -0.67460  -0.64863  -0.63280  -0.62455  -0.61455
 Alpha  occ. eigenvalues --   -0.60367  -0.56383  -0.55850  -0.55299  -0.54653
 Alpha  occ. eigenvalues --   -0.53906  -0.53582  -0.53096  -0.51591  -0.51304
 Alpha  occ. eigenvalues --   -0.50772  -0.50229  -0.48999  -0.48159  -0.46694
 Alpha  occ. eigenvalues --   -0.46087  -0.45318  -0.44282  -0.43587  -0.43128
 Alpha  occ. eigenvalues --   -0.42343  -0.41638  -0.41230  -0.40235  -0.39570
 Alpha  occ. eigenvalues --   -0.39132  -0.37912  -0.37250  -0.36389  -0.34989
 Alpha  occ. eigenvalues --   -0.34860  -0.34789  -0.34128  -0.33549  -0.33335
 Alpha  occ. eigenvalues --   -0.33084  -0.31268  -0.30760  -0.30297  -0.29775
 Alpha  occ. eigenvalues --   -0.29488  -0.28243  -0.28042  -0.27317  -0.26583
 Alpha  occ. eigenvalues --   -0.26252
 Alpha virt. eigenvalues --   -0.01979  -0.01817  -0.01572  -0.00115   0.00288
 Alpha virt. eigenvalues --    0.01009   0.02064   0.02347   0.03057   0.03492
 Alpha virt. eigenvalues --    0.03804   0.04441   0.04645   0.05236   0.06057

 Mulliken atomic charges:
              1
     1  O   -0.536819
     2  C   -0.121868
     3  C    0.329194
     4  O   -0.581165
     5  H    0.347505
     6  C   -0.059881
     7  O   -0.600927
     8  H    0.424250
     9  C   -0.259843
    10  O   -0.564848
    11  H    0.344912
    12  C    0.233735
    13  O   -0.234226
    14  C    0.110606
    15  O   -0.232303
    16  C    0.208116
    17  C    0.076173
    18  O   -0.566460
    19  H    0.397406
    20  C    0.108370
    21  O   -0.542297
    22  H    0.333510
    23  C   -0.243271
    24  O   -0.566604
    25  H    0.358497
    26  C   -0.002155
    27  O   -0.265762
    28  C    0.149664
    29  O   -0.546886
    30  H    0.336996
    31  H    0.127993
    32  H    0.130762
    33  H    0.118871
    34  H    0.111125
    35  H    0.126154
    36  H    0.151446
    37  H    0.345566
    38  H    0.149564
    39  H    0.109184
    40  H    0.115609
    41  H    0.144480
    42  H    0.117306
    43  H    0.133059
    44  H    0.132478
    45  H    0.152781
 Sum of Mulliken atomic charges =   0.00000

 Dipole moment (field-independent basis, Debye):
    X=              2.6706    Y=              0.0753    Z=             -0.9579  Tot=              2.8382
 Quadrupole moment (field-independent basis, Debye-Ang):
   XX=           -119.7321   YY=           -135.8014   ZZ=           -137.9695
   XY=             11.1896   XZ=             -1.4862   YZ=              2.1511

  Exact polarizability: 234.029  -1.548 198.705   1.070   1.021 142.797
 Approx polarizability: 274.498  -0.652 257.556   1.827   1.151 238.404

 ******    6 imaginary frequencies (negative Signs) ******

                     1                      2                      3
                     A                      A                      A
 Frequencies --  -306.2804              -280.5075              -264.9052
 Red. masses --     1.5541                 1.2266                 1.7977
 Frc consts  --     0.0859                 0.0569                 0.0743
 IR Inten    --    33.5475                80.6880                 5.0613
 Raman Activ --     0.2422                 0.6176                 0.0519

                     4                      5                      6
                     A                      A                      A
 Frequencies --  -195.2407               -68.4006               -39.1143
 Red. masses --     1.2106                 7.1694                 6.6090
 Frc consts  --     0.0272                 0.0198                 0.0060
 IR Inten    --   109.9206                 2.3939                 0.5034
 Raman Activ --     0.8648                 0.0393                 0.0204

                     7                      8                      9
                     A                      A                      A
 Frequencies --    34.8911                54.6011                73.1397
 Red. masses --     6.5515                 6.6307                 7.2518
 Frc consts  --     0.0047                 0.0116                 0.0229
 IR Inten    --     1.4681                 2.4204                 1.1935
 Raman Activ --     0.0307                 0.0105                 0.0410

                    10                     11                     12
                     A                      A                      A
 Frequencies --    81.9142                85.5488               135.9962
 Red. masses --     7.2037                 6.4782                 5.6928
 Frc consts  --     0.0285                 0.0279                 0.0620
 IR Inten    --     0.6415                 0.5705                 1.8671
 Raman Activ --     0.0601                 0.3110                 0.0768

                    13                     14                     15
                     A                      A                      A
 Frequencies --   160.8709               179.0268               191.1495
 Red. masses --     6.3722                 5.7191                 7.9918
 Frc consts  --     0.0972                 0.1080                 0.1720
 IR Inten    --     5.5968                 1.6620                 0.4931
 Raman Activ --     0.3381                 0.2572                 0.5655

                    16                     17                     18
                     A                      A                      A
 Frequencies --   205.7271               235.7623               267.6317
 Red. masses --     6.8649                 5.9152                 4.9307
 Frc consts  --     0.1712                 0.1937                 0.2081
 IR Inten    --     0.0962                 1.6521                18.9313
 Raman Activ --     2.3133                 0.7471                 0.2474

                    19                     20                     21
                     A                      A                      A
 Frequencies --   281.3651               290.9265               305.2874
 Red. masses --     4.4162                 4.9417                 5.1853
 Frc consts  --     0.2060                 0.2464                 0.2847
 IR Inten    --     4.3459                 1.6609                 3.8789
 Raman Activ --     0.0964                 0.3366                 0.1292

                    22                     23                     24
                     A                      A                      A
 Frequencies --   313.7734               321.2808               330.1486
 Red. masses --     5.1610                 5.8321                 6.4908
 Frc consts  --     0.2994                 0.3547                 0.4168
 IR Inten    --     5.0967                 2.0077                 6.1996
 Raman Activ --     0.5488                 2.3042                 3.9751

                    25                     26                     27
                     A                      A                      A
 Frequencies --   337.0433               356.3513               389.7396
 Red. masses --     6.2111                 4.5770                 5.4515
 Frc consts  --     0.4157                 0.3424                 0.4879
 IR Inten    --     3.8919                 5.4073                 5.0427
 Raman Activ --     2.7678                 0.1449                 2.5989

                    28                     29                     30
                     A                      A                      A
 Frequencies --   402.7443               420.9687               432.8013
 Red. masses --     6.2989                 4.9436                 5.8789
 Frc consts  --     0.6020                 0.5162                 0.6488
 IR Inten    --    17.2240                 3.3546                 7.8540
 Raman Activ --     2.0996                 6.4293                 1.0540

                    31                     32                     33
                     A                      A                      A
 Frequencies --   438.3276               482.8643               491.1172
 Red. masses --     5.3837                 4.1353                 4.4916
 Frc consts  --     0.6094                 0.5681                 0.6383
 IR Inten    --     5.1032                10.3375                10.1153
 Raman Activ --     3.9008                 0.1569                 3.9239

                    34                     35                     36
                     A                      A                      A
 Frequencies --   510.2338               526.8839               567.4080
 Red. masses --     3.6131                 3.2283                 3.9934
 Frc consts  --     0.5542                 0.5280                 0.7575
 IR Inten    --     4.2256                12.1958                19.7179
 Raman Activ --     2.6991                 2.5187                 1.5156

                    37                     38                     39
                     A                      A                      A
 Frequencies --   586.7369               601.8604               619.6165
 Red. masses --     3.6594                 4.5428                 4.7594
 Frc consts  --     0.7422                 0.9695                 1.0766
 IR Inten    --    17.2034                19.1230                18.1090
 Raman Activ --     0.7146                 1.0604                 0.3980

                    40                     41                     42
                     A                      A                      A
 Frequencies --   635.0267               661.8768               664.3756
 Red. masses --     3.4563                 1.0767                 1.0822
 Frc consts  --     0.8212                 0.2779                 0.2814
 IR Inten    --    31.5736                50.3876               149.7113
 Raman Activ --     0.8916                 1.9226                 2.3663

                    43                     44                     45
                     A                      A                      A
 Frequencies --   683.5478               706.4084               739.0986
 Red. masses --     5.2280                 1.0746                 1.0667
 Frc consts  --     1.4392                 0.3159                 0.3433
 IR Inten    --    10.1196               114.4480                98.2783
 Raman Activ --     0.8342                 1.6205                 1.9368

                    46                     47                     48
                     A                      A                      A
 Frequencies --   816.0571               833.4951               852.1093
 Red. masses --     1.0824                 1.1055                 1.8114
 Frc consts  --     0.4247                 0.4525                 0.7749
 IR Inten    --    85.9821                75.6293                 1.7348
 Raman Activ --     1.7161                 0.8551                 2.4577

                    49                     50                     51
                     A                      A                      A
 Frequencies --   866.6801               925.3002               953.2868
 Red. masses --     1.6012                 6.0499                 5.0974
 Frc consts  --     0.7086                 3.0519                 2.7293
 IR Inten    --    12.0384                97.1939               108.5316
 Raman Activ --     0.4034                 2.5177                 0.4803

                    52                     53                     54
                     A                      A                      A
 Frequencies --   969.6875               972.4947               979.9236
 Red. masses --     4.3987                 6.3955                 5.6815
 Frc consts  --     2.4369                 3.5637                 3.2144
 IR Inten    --    47.2877                62.6109               104.7877
 Raman Activ --     1.1695                 2.2911                 1.2944

                    55                     56                     57
                     A                      A                      A
 Frequencies --  1003.7790              1004.5430              1016.6186
 Red. masses --     7.2478                 5.5911                 5.4040
 Frc consts  --     4.3026                 3.3242                 3.2907
 IR Inten    --    81.9686               186.0233               188.1274
 Raman Activ --     1.4356                 2.1974                 3.0995

                    58                     59                     60
                     A                      A                      A
 Frequencies --  1037.5812              1051.0405              1067.6301
 Red. masses --     7.0209                 5.6567                 4.1643
 Frc consts  --     4.4533                 3.6818                 2.7966
 IR Inten    --   455.5530                82.1787                 4.1387
 Raman Activ --     2.7387                 2.9810                 4.3084

                    61                     62                     63
                     A                      A                      A
 Frequencies --  1069.2671              1074.0025              1077.9420
 Red. masses --     4.0977                 5.0915                 4.4644
 Frc consts  --     2.7604                 3.4602                 3.0563
 IR Inten    --    25.6767                57.3052                82.1009
 Raman Activ --    24.8765                 4.3226                 8.2406

                    64                     65                     66
                     A                      A                      A
 Frequencies --  1092.3290              1098.1721              1101.1468
 Red. masses --     2.3881                 2.1512                 3.0618
 Frc consts  --     1.6788                 1.5285                 2.1874
 IR Inten    --    81.3226                23.4094                32.9383
 Raman Activ --     5.0711                 5.1071                10.3029

                    67                     68                     69
                     A                      A                      A
 Frequencies --  1112.8536              1121.6363              1127.6077
 Red. masses --     2.3642                 2.2024                 2.9031
 Frc consts  --     1.7251                 1.6325                 2.1748
 IR Inten    --    11.7046                39.8928                 1.8821
 Raman Activ --     3.0901                11.6793                 2.7109

                    70                     71                     72
                     A                      A                      A
 Frequencies --  1131.6064              1140.5662              1156.4424
 Red. masses --     3.1035                 1.8775                 1.9733
 Frc consts  --     2.3415                 1.4391                 1.5548
 IR Inten    --    87.5002                 2.6745                 8.4790
 Raman Activ --     4.3786                 4.6022                 0.7038

                    73                     74                     75
                     A                      A                      A
 Frequencies --  1158.6143              1166.5569              1188.3485
 Red. masses --     1.7707                 1.9807                 1.6534
 Frc consts  --     1.4005                 1.5881                 1.3757
 IR Inten    --    23.4143                12.0701                25.4323
 Raman Activ --     3.1518                 1.4202                 1.6379

                    76                     77                     78
                     A                      A                      A
 Frequencies --  1210.0136              1213.8442              1225.7317
 Red. masses --     1.3782                 1.3300                 1.2303
 Frc consts  --     1.1889                 1.1546                 1.0891
 IR Inten    --    10.4420                 5.8123                 6.6859
 Raman Activ --     0.9270                 1.8333                 2.6072

                    79                     80                     81
                     A                      A                      A
 Frequencies --  1232.9703              1243.3745              1247.2231
 Red. masses --     1.2540                 1.2584                 1.2240
 Frc consts  --     1.1232                 1.1463                 1.1218
 IR Inten    --     6.6792                11.3084                11.5283
 Raman Activ --     0.6632                 1.4849                 2.7824

                    82                     83                     84
                     A                      A                      A
 Frequencies --  1262.6120              1277.7372              1283.9747
 Red. masses --     1.1878                 1.1541                 1.3152
 Frc consts  --     1.1156                 1.1102                 1.2774
 IR Inten    --    44.4467                 8.4147                 5.9609
 Raman Activ --     1.9404                 5.3274                 3.3941

                    85                     86                     87
                     A                      A                      A
 Frequencies --  1288.4773              1293.0423              1300.2489
 Red. masses --     1.3399                 1.3804                 1.3282
 Frc consts  --     1.3106                 1.3599                 1.3230
 IR Inten    --    39.9772                33.2275                32.4159
 Raman Activ --     0.7050                 2.7035                 2.8350

                    88                     89                     90
                     A                      A                      A
 Frequencies --  1309.0813              1311.3979              1318.6745
 Red. masses --     1.1718                 1.2767                 1.3070
 Frc consts  --     1.1831                 1.2936                 1.3391
 IR Inten    --    26.2260                 2.3314                37.9338
 Raman Activ --     7.2945                 9.9629                 4.9445

                    91                     92                     93
                     A                      A                      A
 Frequencies --  1329.4557              1334.6593              1337.5323
 Red. masses --     1.3041                 1.2848                 1.1296
 Frc consts  --     1.3580                 1.3485                 1.1907
 IR Inten    --     7.2284                61.4125                14.9545
 Raman Activ --     0.5322                 3.9042                 2.7448

                    94                     95                     96
                     A                      A                      A
 Frequencies --  1341.7227              1359.6286              1363.9210
 Red. masses --     1.3007                 1.4942                 1.4732
 Frc consts  --     1.3795                 1.6275                 1.6147
 IR Inten    --    24.4880                 6.6974                 6.4084
 Raman Activ --     2.6940                12.1655                 1.3602

                    97                     98                     99
                     A                      A                      A
 Frequencies --  1376.8356              1384.0350              1386.6071
 Red. masses --     1.3750                 1.6055                 1.6473
 Frc consts  --     1.5357                 1.8120                 1.8661
 IR Inten    --     2.7328                10.9011                 9.0967
 Raman Activ --     2.5752                 6.6382                 4.4569

                   100                    101                    102
                     A                      A                      A
 Frequencies --  1412.1952              1416.4386              1451.2376
 Red. masses --     1.4058                 1.5290                 1.4278
 Frc consts  --     1.6519                 1.8074                 1.7717
 IR Inten    --     5.2586                27.6582                21.5736
 Raman Activ --     4.2767                 1.4628                 0.5043

                   103                    104                    105
                     A                      A                      A
 Frequencies --  1455.0519              1474.7899              1475.6957
 Red. masses --     1.3627                 1.0956                 1.0815
 Frc consts  --     1.6998                 1.4040                 1.3877
 IR Inten    --     8.0689                 1.5125                 2.6356
 Raman Activ --     1.7585                 4.1001                 4.2190

                   106                    107                    108
                     A                      A                      A
 Frequencies --  1492.5247              1533.6044              3250.7643
 Red. masses --     1.2666                 1.2358                 1.0675
 Frc consts  --     1.6624                 1.7125                 6.6467
 IR Inten    --    36.4543                44.4826               410.8040
 Raman Activ --     1.4599                 1.2203               133.4334

                   109                    110                    111
                     A                      A                      A
 Frequencies --  3256.5064              3264.1838              3267.1557
 Red. masses --     1.0578                 1.0660                 1.0734
 Frc consts  --     6.6095                 6.6918                 6.7508
 IR Inten    --    71.4386                92.4142               367.7181
 Raman Activ --    69.9621               214.3464               111.2094

                   112                    113                    114
                     A                      A                      A
 Frequencies --  3269.1775              3272.2752              3277.3720
 Red. masses --     1.0821                 1.0817                 1.0826
 Frc consts  --     6.8139                 6.8241                 6.8512
 IR Inten    --    74.6142                19.0127                 9.5659
 Raman Activ --    73.8426                97.3768                10.0144

                   115                    116                    117
                     A                      A                      A
 Frequencies --  3279.8935              3282.5501              3285.6527
 Red. masses --     1.0783                 1.0821                 1.0836
 Frc consts  --     6.8347                 6.8699                 6.8922
 IR Inten    --   320.3359                79.0902               146.5972
 Raman Activ --    51.4258               189.3933                22.2803

                   118                    119                    120
                     A                      A                      A
 Frequencies --  3288.9407              3293.0308              3301.5111
 Red. masses --     1.0863                 1.0852                 1.0877
 Frc consts  --     6.9235                 6.9336                 6.9856
 IR Inten    --    11.0181                78.6975                 3.7635
 Raman Activ --    41.9019                33.6732                 6.9525

                   121                    122                    123
                     A                      A                      A
 Frequencies --  3304.1186              3309.7455              3317.2473
 Red. masses --     1.0890                 1.1012                 1.1054
 Frc consts  --     7.0049                 7.1074                 7.1669
 IR Inten    --    73.4191                93.9275                46.9315
 Raman Activ --    28.9700                35.5756                49.3068

                   124                    125                    126
                     A                      A                      A
 Frequencies --  3360.9742              3362.0975              3376.4676
 Red. masses --     1.0674                 1.0679                 1.0671
 Frc consts  --     7.1039                 7.1122                 7.1676
 IR Inten    --    52.3455                53.2198                77.5118
 Raman Activ --   143.2933               194.6622               135.7559

                   127                    128                    129
                     A                      A                      A
 Frequencies --  3378.6235              3891.1901              3891.6081
 Red. masses --     1.0660                 1.0677                 1.0675
 Frc consts  --     7.1693                 9.5252                 9.5253
 IR Inten    --    24.8631               104.7807                67.2980
 Raman Activ --   169.2274                64.7208               127.0810

 - Thermochemistry -
 -------------------
 Temperature   298.150 Kelvin.  Pressure   1.00000 Atm.
 Atom     1 has atomic number  8 and mass  15.99491

 Molecular mass:   342.11621 amu.
 Principal axes and moments of inertia in atomic units:
                           1         2         3
     Eigenvalues --  4471.96730********************
           X            0.99998   0.00656  -0.00044
           Y           -0.00656   0.99998   0.00233
           Z            0.00046  -0.00233   1.00000
 This molecule is an asymmetric top.
 Rotational symmetry number  1.
 Warning -- assumption of classical behavior for rotation
           may cause significant error
 Rotational temperatures (Kelvin)      0.01937     0.00714     0.00533
 Rotational constants (GHZ):           0.40357     0.14887     0.11103
    6 imaginary frequencies ignored.
 Zero-point vibrational energy     973143.1 (Joules/Mol)
                                  232.58677 (Kcal/Mol)
 Warning -- explicit consideration of  33 degrees of freedom as
           vibrations may cause significant error
 Vibrational temperatures:     50.20    78.56   105.23   117.86   123.09
          (Kelvin)            195.67   231.46   257.58   275.02   296.00
                              339.21   385.06   404.82   418.58   439.24
                              451.45   462.25   475.01   484.93   512.71
                              560.75   579.46   605.68   622.70   630.65
                              694.73   706.61   734.11   758.07   816.37
                              844.18   865.94   891.49   913.66   952.29
                              955.89   983.47  1016.36  1063.40  1174.12
                             1199.21  1225.99  1246.96  1331.30  1371.57
                             1395.16  1399.20  1409.89  1444.21  1445.31
                             1462.69  1492.85  1512.21  1536.08  1538.44
                             1545.25  1550.92  1571.62  1580.02  1584.30
                             1601.15  1613.78  1622.37  1628.13  1641.02
                             1663.86  1666.99  1678.41  1709.77  1740.94
                             1746.45  1763.55  1773.97  1788.94  1794.47
                             1816.61  1838.38  1847.35  1853.83  1860.40
                             1870.77  1883.47  1886.81  1897.28  1912.79
                             1920.27  1924.41  1930.44  1956.20  1962.38
                             1980.96  1991.32  1995.02  2031.83  2037.94
                             2088.00  2093.49  2121.89  2123.19  2147.41
                             2206.51  4677.12  4685.38  4696.43  4700.70
                             4703.61  4708.07  4715.40  4719.03  4722.85
                             4727.32  4732.05  4737.93  4750.13  4753.88
                             4761.98  4772.77  4835.69  4837.30  4857.98
                             4861.08  5598.55  5599.15

 Zero-point correction=                           0.370651 (Hartree/Particle)
 Thermal correction to Energy=                    0.389765
 Thermal correction to Enthalpy=                  0.390709
 Thermal correction to Gibbs Free Energy=         0.323783
 Sum of electronic and zero-point Energies=          -1297.627631
 Sum of electronic and thermal Energies=             -1297.608516
 Sum of electronic and thermal Enthalpies=           -1297.607572
 Sum of electronic and thermal Free Energies=        -1297.674498

                     E (Thermal)             CV                S
                      KCal/Mol        Cal/Mol-Kelvin    Cal/Mol-Kelvin
 Total                  244.581             78.084            140.859
 Electronic               0.000              0.000              0.000
 Translational            0.889              2.981             43.384
 Rotational               0.889              2.981             35.132
 Vibrational            242.804             72.122             62.343
 Vibration     1          0.594              1.983              5.530
 Vibration     2          0.596              1.976              4.643
 Vibration     3          0.599              1.967              4.067
 Vibration     4          0.600              1.962              3.844
 Vibration     5          0.601              1.959              3.759
 Vibration     6          0.614              1.917              2.859
 Vibration     7          0.622              1.890              2.540
 Vibration     8          0.629              1.868              2.339
 Vibration     9          0.634              1.852              2.217
 Vibration    10          0.640              1.832              2.081
 Vibration    11          0.655              1.786              1.835
 Vibration    12          0.673              1.733              1.611
 Vibration    13          0.681              1.708              1.525
 Vibration    14          0.687              1.691              1.469
 Vibration    15          0.696              1.664              1.388
 Vibration    16          0.702              1.647              1.342
 Vibration    17          0.707              1.633              1.304
 Vibration    18          0.713              1.615              1.259
 Vibration    19          0.718              1.602              1.226
 Vibration    20          0.732              1.562              1.138
 Vibration    21          0.758              1.492              1.001
 Vibration    22          0.768              1.464              0.953
 Vibration    23          0.783              1.425              0.889
 Vibration    24          0.794              1.399              0.850
 Vibration    25          0.798              1.387              0.832
 Vibration    26          0.839              1.288              0.702
 Vibration    27          0.847              1.270              0.681
 Vibration    28          0.865              1.227              0.633
 Vibration    29          0.882              1.190              0.594
 Vibration    30          0.923              1.102              0.509
 Vibration    31          0.944              1.060              0.473
 Vibration    32          0.960              1.028              0.446
 Vibration    33          0.980              0.990              0.417

 Normal termination of Gaussian 09 at Fri Apr  1 09:32:04 2016.
