 Gaussian 09, Revision B.01,
 Gaussian 09:  EM64L-G09RevB.01 12-Aug-2010

 -------------------------------------------------
 # freq=raman b3lyp/6-31+g(2d,p) geom=connectivity
 -------------------------------------------------

 -----------------
 310 5930/5930.com
 -----------------
 Symbolic Z-matrix:
 Charge =  0 Multiplicity = 1

                         Standard orientation:
 ---------------------------------------------------------------------
 Center     Atomic      Atomic             Coordinates (Angstroms)
 Number     Number       Type             X           Y           Z
 ---------------------------------------------------------------------
      1          8           0       -4.990722   -0.550953    0.222807
      2          6           0       -3.672060   -0.169690   -0.193690
      3          6           0       -3.268349    1.207038    0.309081
      4          8           0       -4.181262    2.245157   -0.076631
      5          1           0       -5.136643    1.956469   -0.147120
      6          6           0       -1.896119    1.606352   -0.209669
      7          8           0       -1.432238    2.875325    0.274483
      8          1           0       -0.530279    3.098233   -0.095837
      9          6           0       -2.867971   -2.620711   -0.020386
     10          8           0       -3.985000   -3.288669    0.584940
     11          1           0       -3.778249   -4.267252    0.566553
     12          6           0       -2.626645   -1.155274    0.301896
     13          8           0       -1.436574   -0.814955   -0.423828
     14          6           0       -0.978876    0.437289    0.106659
     15          8           0        0.257455    0.520381   -0.617949
     16          6           0        1.463273    0.130251    0.054487
     17          6           0        2.042532   -1.140490   -0.545270
     18          8           0        1.097794   -2.211800   -0.405096
     19          1           0        0.177932   -1.890578   -0.630393
     20          6           0        3.345617   -1.565342    0.113471
     21          8           0        4.027618   -2.670651   -0.496283
     22          1           0        4.938697   -2.715688   -0.084580
     23          6           0        2.213871    2.650831    0.248430
     24          8           0        1.124590    3.353199   -0.367611
     25          1           0        1.227392    4.347141   -0.407136
     26          6           0        2.505817    1.215301   -0.156723
     27          8           0        3.795915    0.909568    0.392392
     28          6           0        4.290968   -0.380208    0.002239
     29          8           0        5.352502   -0.457830    0.965863
     30          1           0        6.192393   -0.549522    0.510039
     31          1           0       -5.528514   -0.738966   -0.549871
     32          1           0       -1.984994   -3.159195    0.253997
     33          1           0       -2.466457   -1.028464    1.352210
     34          1           0       -3.646612   -0.159352   -1.263338
     35          1           0       -3.227990    1.174924    1.377837
     36          1           0       -1.965281    1.679913   -1.274895
     37          1           0       -0.798911    0.362645    1.158771
     38          1           0        3.101984    3.219320    0.066839
     39          1           0        2.037734    2.653762    1.303829
     40          1           0        2.649559    1.249916   -1.216459
     41          1           0        1.277357   -0.005164    1.099474
     42          1           0        2.222945   -0.976098   -1.587060
     43          1           0        3.167796   -1.782934    1.145912
     44          1           0        4.699523   -0.330085   -0.985420
     45          1           0       -2.982349   -2.701312   -1.081198
 ---------------------------------------------------------------------

 SCF Done:  E(RB3LYP) =  -1297.98587906     A.U. after   13 cycles

 The electronic state is 1-A.
 Alpha  occ. eigenvalues --  -19.18641 -19.18545 -19.17623 -19.17586 -19.17521
 Alpha  occ. eigenvalues --  -19.16857 -19.16586 -19.15988 -19.14794 -19.14042
 Alpha  occ. eigenvalues --  -19.13399 -10.30382 -10.30351 -10.25768 -10.25448
 Alpha  occ. eigenvalues --  -10.25337 -10.25294 -10.25278 -10.25049 -10.24713
 Alpha  occ. eigenvalues --  -10.24332 -10.24261 -10.24011  -1.10452  -1.09281
 Alpha  occ. eigenvalues --   -1.05243  -1.04854  -1.03818  -1.03667  -1.02471
 Alpha  occ. eigenvalues --   -1.02186  -1.01622  -1.00750  -0.99640  -0.82165
 Alpha  occ. eigenvalues --   -0.80567  -0.79455  -0.78235  -0.72114  -0.70038
 Alpha  occ. eigenvalues --   -0.67331  -0.64933  -0.63370  -0.62069  -0.61771
 Alpha  occ. eigenvalues --   -0.60656  -0.56415  -0.55874  -0.55116  -0.54464
 Alpha  occ. eigenvalues --   -0.53680  -0.53322  -0.53097  -0.51715  -0.51440
 Alpha  occ. eigenvalues --   -0.50860  -0.49870  -0.49160  -0.48921  -0.46670
 Alpha  occ. eigenvalues --   -0.46036  -0.45015  -0.44291  -0.43661  -0.43129
 Alpha  occ. eigenvalues --   -0.42612  -0.41903  -0.40921  -0.40098  -0.39380
 Alpha  occ. eigenvalues --   -0.39147  -0.37733  -0.37431  -0.35896  -0.35176
 Alpha  occ. eigenvalues --   -0.34998  -0.34930  -0.34386  -0.33952  -0.33807
 Alpha  occ. eigenvalues --   -0.32872  -0.31338  -0.30675  -0.30361  -0.29826
 Alpha  occ. eigenvalues --   -0.29079  -0.28795  -0.28477  -0.27503  -0.26558
 Alpha  occ. eigenvalues --   -0.26508
 Alpha virt. eigenvalues --   -0.02059  -0.01978  -0.01840  -0.00368   0.00334
 Alpha virt. eigenvalues --    0.00846   0.01885   0.02326   0.03210   0.03502
 Alpha virt. eigenvalues --    0.03688   0.04156   0.04794   0.05284   0.05486

 Mulliken atomic charges:
              1
     1  O   -0.538841
     2  C   -0.027670
     3  C    0.248637
     4  O   -0.562804
     5  H    0.338476
     6  C   -0.203743
     7  O   -0.578867
     8  H    0.415806
     9  C   -0.219312
    10  O   -0.511828
    11  H    0.334644
    12  C    0.119646
    13  O   -0.251212
    14  C    0.222012
    15  O   -0.198965
    16  C    0.366820
    17  C    0.175224
    18  O   -0.569172
    19  H    0.374855
    20  C    0.051455
    21  O   -0.526943
    22  H    0.330883
    23  C   -0.305773
    24  O   -0.585822
    25  H    0.366786
    26  C   -0.100172
    27  O   -0.232063
    28  C    0.106698
    29  O   -0.514682
    30  H    0.328413
    31  H    0.336747
    32  H    0.148055
    33  H    0.112242
    34  H    0.118618
    35  H    0.120420
    36  H    0.128109
    37  H    0.121317
    38  H    0.147739
    39  H    0.155562
    40  H    0.112975
    41  H    0.108582
    42  H    0.124441
    43  H    0.137676
    44  H    0.134626
    45  H    0.140404
 Sum of Mulliken atomic charges =   0.00000

 Dipole moment (field-independent basis, Debye):
    X=              2.7099    Y=              0.1473    Z=             -1.7881  Tot=              3.2500
 Quadrupole moment (field-independent basis, Debye-Ang):
   XX=           -119.7847   YY=           -136.0608   ZZ=           -140.2784
   XY=             15.1486   XZ=              4.9249   YZ=             -3.7236

  Exact polarizability: 232.543  -2.189 199.136   1.712   0.150 144.336
 Approx polarizability: 273.770  -1.517 259.657   1.375   0.052 240.330

 ******    6 imaginary frequencies (negative Signs) ******

                     1                      2                      3
                     A                      A                      A
 Frequencies --  -272.9995              -271.4945              -234.0458
 Red. masses --     1.6164                 1.7438                 1.2442
 Frc consts  --     0.0710                 0.0757                 0.0402
 IR Inten    --    27.9807                 5.0336                20.9730
 Raman Activ --     0.2586                 0.0596                 1.4242

                     4                      5                      6
                     A                      A                      A
 Frequencies --  -233.3445               -69.5238               -58.5864
 Red. masses --     1.2599                 5.7999                 6.9078
 Frc consts  --     0.0404                 0.0165                 0.0140
 IR Inten    --   150.3302                 0.7549                 1.0713
 Raman Activ --     0.3553                 0.0914                 0.0522

                     7                      8                      9
                     A                      A                      A
 Frequencies --    14.3614                26.2657                71.8342
 Red. masses --     6.5931                 6.6918                 6.2363
 Frc consts  --     0.0008                 0.0027                 0.0190
 IR Inten    --     0.5740                 0.2783                 2.5203
 Raman Activ --     0.1065                 0.0455                 0.0518

                    10                     11                     12
                     A                      A                      A
 Frequencies --    75.4777                92.2295               107.1379
 Red. masses --     6.6722                 6.6679                 6.9910
 Frc consts  --     0.0224                 0.0334                 0.0473
 IR Inten    --     1.4409                 1.1077                 1.6637
 Raman Activ --     0.1612                 0.1201                 0.0463

                    13                     14                     15
                     A                      A                      A
 Frequencies --   158.1846               165.9771               181.2360
 Red. masses --     6.4998                 5.4348                 7.7693
 Frc consts  --     0.0958                 0.0882                 0.1504
 IR Inten    --     2.9373                 2.4543                 0.7089
 Raman Activ --     0.5691                 0.2981                 0.6493

                    16                     17                     18
                     A                      A                      A
 Frequencies --   211.7706               237.1783               273.1859
 Red. masses --     6.8439                 5.7132                 4.7100
 Frc consts  --     0.1808                 0.1894                 0.2071
 IR Inten    --     0.5645                 3.2341                 5.4646
 Raman Activ --     1.9473                 0.3784                 0.4185

                    19                     20                     21
                     A                      A                      A
 Frequencies --   285.8652               294.7754               297.7711
 Red. masses --     4.7009                 4.5804                 4.7789
 Frc consts  --     0.2263                 0.2345                 0.2497
 IR Inten    --     1.0045                 4.8481                 6.4980
 Raman Activ --     0.1012                 0.7304                 0.1575

                    22                     23                     24
                     A                      A                      A
 Frequencies --   312.1241               318.4133               325.9750
 Red. masses --     5.3930                 5.1554                 6.7184
 Frc consts  --     0.3096                 0.3080                 0.4206
 IR Inten    --    10.8175                 0.5432                 0.1016
 Raman Activ --     0.5962                 3.6700                 2.5003

                    25                     26                     27
                     A                      A                      A
 Frequencies --   346.0405               355.9040               378.2881
 Red. masses --     6.5460                 5.0478                 7.3005
 Frc consts  --     0.4618                 0.3767                 0.6155
 IR Inten    --    10.7103                 7.3655                 6.1735
 Raman Activ --     3.7877                 0.8251                 2.1082

                    28                     29                     30
                     A                      A                      A
 Frequencies --   404.1137               421.6783               430.2550
 Red. masses --     3.9570                 5.9791                 5.5694
 Frc consts  --     0.3807                 0.6264                 0.6074
 IR Inten    --    20.3860                 3.9000                 1.0931
 Raman Activ --     1.2735                 4.7562                 4.7082

                    31                     32                     33
                     A                      A                      A
 Frequencies --   441.1545               473.8386               490.4413
 Red. masses --     4.3817                 4.4300                 4.2714
 Frc consts  --     0.5024                 0.5860                 0.6053
 IR Inten    --     2.4425                 4.0068                11.8031
 Raman Activ --     1.4823                 5.4263                 0.7555

                    34                     35                     36
                     A                      A                      A
 Frequencies --   513.6611               530.4874               567.2201
 Red. masses --     4.7306                 2.8714                 4.4308
 Frc consts  --     0.7354                 0.4761                 0.8399
 IR Inten    --    11.4826                 9.9028                 9.3741
 Raman Activ --     0.8870                 3.1076                 1.9512

                    37                     38                     39
                     A                      A                      A
 Frequencies --   579.6673               593.5232               619.8692
 Red. masses --     2.6691                 5.6392                 3.6982
 Frc consts  --     0.5284                 1.1704                 0.8372
 IR Inten    --    45.4338                 5.0701                12.2163
 Raman Activ --     0.3681                 0.5012                 0.4592

                    40                     41                     42
                     A                      A                      A
 Frequencies --   644.0463               656.2005               695.2630
 Red. masses --     2.6221                 1.3931                 1.1009
 Frc consts  --     0.6408                 0.3534                 0.3136
 IR Inten    --    44.0858                87.4801                81.2971
 Raman Activ --     0.7976                 1.6319                 2.3942

                    43                     44                     45
                     A                      A                      A
 Frequencies --   710.0839               715.2028               735.3662
 Red. masses --     2.4777                 1.3452                 1.0728
 Frc consts  --     0.7361                 0.4054                 0.3418
 IR Inten    --    38.9478                83.1098                94.8749
 Raman Activ --     0.8539                 2.2581                 1.6315

                    46                     47                     48
                     A                      A                      A
 Frequencies --   785.0103               807.8819               847.8790
 Red. masses --     1.0670                 1.1008                 1.8227
 Frc consts  --     0.3874                 0.4233                 0.7720
 IR Inten    --   122.2958                89.3800                 1.8823
 Raman Activ --     2.5901                 1.4023                 0.7938

                    49                     50                     51
                     A                      A                      A
 Frequencies --   858.8645               927.4836               953.2149
 Red. masses --     1.6616                 6.0719                 6.2968
 Frc consts  --     0.7221                 3.0774                 3.3709
 IR Inten    --    10.2111               124.8395                73.2619
 Raman Activ --     0.6296                 3.0794                 0.8727

                    52                     53                     54
                     A                      A                      A
 Frequencies --   970.0786               971.5808               984.3685
 Red. masses --     5.8940                 6.2930                 4.1258
 Frc consts  --     3.2679                 3.5000                 2.3555
 IR Inten    --    18.8211               181.0363                61.3014
 Raman Activ --     3.1561                 0.8581                 0.5565

                    55                     56                     57
                     A                      A                      A
 Frequencies --   999.3146              1004.1751              1014.9905
 Red. masses --     4.9658                 6.6564                 5.9705
 Frc consts  --     2.9217                 3.9547                 3.6240
 IR Inten    --   308.1600                 9.2349               160.9611
 Raman Activ --     3.1860                 1.1313                 2.4940

                    58                     59                     60
                     A                      A                      A
 Frequencies --  1041.1632              1046.4427              1068.2982
 Red. masses --     5.8340                 5.4440                 6.1601
 Frc consts  --     3.7261                 3.5123                 4.1421
 IR Inten    --   272.4423                64.3226                95.0052
 Raman Activ --     3.1833                 3.0224                 1.8339

                    61                     62                     63
                     A                      A                      A
 Frequencies --  1070.7942              1076.0915              1085.6439
 Red. masses --     4.0476                 3.5070                 4.3684
 Frc consts  --     2.7344                 2.3927                 3.0335
 IR Inten    --    43.6695                 2.6233                52.0125
 Raman Activ --     5.1659                29.7227                 5.8717

                    64                     65                     66
                     A                      A                      A
 Frequencies --  1097.7502              1102.4560              1104.0412
 Red. masses --     2.4998                 2.6853                 2.4005
 Frc consts  --     1.7749                 1.9229                 1.7239
 IR Inten    --    58.2149                51.0264                95.5063
 Raman Activ --     2.9550                 4.1014                 8.0525

                    67                     68                     69
                     A                      A                      A
 Frequencies --  1107.3248              1120.8571              1132.7773
 Red. masses --     2.8739                 2.7086                 2.9571
 Frc consts  --     2.0762                 2.0049                 2.2357
 IR Inten    --    61.4963                 9.1231                31.7596
 Raman Activ --    17.6386                 1.1807                 5.0734

                    70                     71                     72
                     A                      A                      A
 Frequencies --  1143.7909              1150.4541              1155.4894
 Red. masses --     3.0866                 2.0114                 1.8021
 Frc consts  --     2.3792                 1.5685                 1.4177
 IR Inten    --    20.7277                 5.2543                 5.7981
 Raman Activ --     4.8390                 0.5480                 4.0171

                    73                     74                     75
                     A                      A                      A
 Frequencies --  1163.9103              1173.6313              1186.6311
 Red. masses --     2.0478                 1.7959                 1.6124
 Frc consts  --     1.6344                 1.4574                 1.3377
 IR Inten    --    13.0093                 2.1932                14.9476
 Raman Activ --     2.9599                 2.1805                 2.6843

                    76                     77                     78
                     A                      A                      A
 Frequencies --  1207.0481              1211.0264              1236.7456
 Red. masses --     1.2812                 1.5747                 1.2777
 Frc consts  --     1.0998                 1.3607                 1.1514
 IR Inten    --     7.3159                 2.6954                 3.9738
 Raman Activ --     1.7639                 2.0869                 1.9146

                    79                     80                     81
                     A                      A                      A
 Frequencies --  1239.1382              1240.7318              1258.5831
 Red. masses --     1.1986                 1.2639                 1.2743
 Frc consts  --     1.0844                 1.1464                 1.1892
 IR Inten    --    19.5435                 5.0573                10.6482
 Raman Activ --     1.8548                 1.9914                 0.7511

                    82                     83                     84
                     A                      A                      A
 Frequencies --  1275.2683              1276.1242              1279.3862
 Red. masses --     1.3110                 1.2128                 1.2194
 Frc consts  --     1.2562                 1.1637                 1.1759
 IR Inten    --    42.5946                18.6514                20.9506
 Raman Activ --     1.8957                 4.7501                 1.2154

                    85                     86                     87
                     A                      A                      A
 Frequencies --  1290.6062              1293.3576              1305.9528
 Red. masses --     1.2929                 1.3067                 1.1788
 Frc consts  --     1.2688                 1.2878                 1.1846
 IR Inten    --    50.6524                 7.4335                12.5213
 Raman Activ --     3.3710                 1.0388                 7.2655

                    88                     89                     90
                     A                      A                      A
 Frequencies --  1309.1820              1316.9493              1326.5320
 Red. masses --     1.2256                 1.3079                 1.2581
 Frc consts  --     1.2376                 1.3364                 1.3044
 IR Inten    --    13.2534                18.7615                18.9578
 Raman Activ --     7.3073                 4.8805                 9.4912

                    91                     92                     93
                     A                      A                      A
 Frequencies --  1332.9563              1342.0781              1346.7264
 Red. masses --     1.2745                 1.2305                 1.2080
 Frc consts  --     1.3342                 1.3059                 1.2908
 IR Inten    --    32.5461                 9.4593                66.5838
 Raman Activ --     1.7153                 1.3416                 3.0113

                    94                     95                     96
                     A                      A                      A
 Frequencies --  1350.7307              1366.9836              1375.3799
 Red. masses --     1.1833                 1.4014                 1.4337
 Frc consts  --     1.2719                 1.5430                 1.5979
 IR Inten    --    41.6943                 3.7704                 3.7570
 Raman Activ --     1.2888                10.0947                 6.0044

                    97                     98                     99
                     A                      A                      A
 Frequencies --  1377.0384              1387.0072              1403.7052
 Red. masses --     1.5525                 1.5050                 1.5072
 Frc consts  --     1.7345                 1.7058                 1.7497
 IR Inten    --     4.2171                24.0735                 9.8188
 Raman Activ --     4.0217                 3.6195                 3.5399

                   100                    101                    102
                     A                      A                      A
 Frequencies --  1403.8683              1434.6199              1440.5966
 Red. masses --     1.4257                 1.4342                 1.4152
 Frc consts  --     1.6555                 1.7392                 1.7304
 IR Inten    --    11.7725                20.7511                27.0416
 Raman Activ --     6.5323                 0.6430                 1.2032

                   103                    104                    105
                     A                      A                      A
 Frequencies --  1467.9908              1472.1199              1476.8844
 Red. masses --     1.1454                 1.0781                 1.2726
 Frc consts  --     1.4542                 1.3765                 1.6354
 IR Inten    --    13.9620                 3.8665                40.7109
 Raman Activ --     5.6344                 4.4492                 1.6203

                   106                    107                    108
                     A                      A                      A
 Frequencies --  1481.1627              1493.2924              3242.8854
 Red. masses --     1.3418                 1.2447                 1.0685
 Frc consts  --     1.7344                 1.6353                 6.6204
 IR Inten    --    13.9751                29.7345               805.6052
 Raman Activ --     0.9037                 1.1122               122.3146

                   109                    110                    111
                     A                      A                      A
 Frequencies --  3254.4443              3255.7681              3266.5675
 Red. masses --     1.0799                 1.0573                 1.0614
 Frc consts  --     6.7388                 6.6033                 6.6732
 IR Inten    --    59.6807                38.4542                45.1425
 Raman Activ --   102.7910                80.2297               166.9698

                   112                    113                    114
                     A                      A                      A
 Frequencies --  3272.8293              3274.8680              3276.3700
 Red. masses --     1.0820                 1.0831                 1.0826
 Frc consts  --     6.8288                 6.8442                 6.8471
 IR Inten    --    31.2480                 4.7017                13.5235
 Raman Activ --    30.6519                91.7609                 4.9930

                   115                    116                    117
                     A                      A                      A
 Frequencies --  3282.4437              3284.5222              3286.3003
 Red. masses --     1.0836                 1.0846                 1.0867
 Frc consts  --     6.8791                 6.8939                 6.9148
 IR Inten    --     5.5634                15.4564                 1.6440
 Raman Activ --   124.6826               155.7962                 6.1208

                   118                    119                    120
                     A                      A                      A
 Frequencies --  3290.6255              3300.3663              3303.2169
 Red. masses --     1.0854                 1.0887                 1.0865
 Frc consts  --     6.9247                 6.9867                 6.9849
 IR Inten    --     1.4444                40.1978               103.2558
 Raman Activ --    20.3885                10.9241                 7.4939

                   121                    122                    123
                     A                      A                      A
 Frequencies --  3310.7254              3318.6149              3321.7487
 Red. masses --     1.1033                 1.1056                 1.0684
 Frc consts  --     7.1248                 7.1738                 6.9457
 IR Inten    --    54.4918                52.6666               443.3836
 Raman Activ --    17.4156                50.3008               153.5523

                   124                    125                    126
                     A                      A                      A
 Frequencies --  3354.6230              3361.0309              3364.2561
 Red. masses --     1.0657                 1.0667                 1.0677
 Frc consts  --     7.0659                 7.0997                 7.1197
 IR Inten    --    34.2976                33.2070                39.0772
 Raman Activ --   126.5624               134.5729               157.0850

                   127                    128                    129
                     A                      A                      A
 Frequencies --  3371.7603              3887.5230              3887.6837
 Red. masses --     1.0682                 1.0677                 1.0675
 Frc consts  --     7.1550                 9.5073                 9.5059
 IR Inten    --    72.9562                98.0219                33.0214
 Raman Activ --   159.3333                48.5595               165.9394

 - Thermochemistry -
 -------------------
 Temperature   298.150 Kelvin.  Pressure   1.00000 Atm.
 Atom     1 has atomic number  8 and mass  15.99491

 Molecular mass:   342.11621 amu.
 Principal axes and moments of inertia in atomic units:
                           1         2         3
     Eigenvalues --  4546.23775********************
           X            0.99997   0.00752   0.00045
           Y           -0.00752   0.99997  -0.00036
           Z           -0.00045   0.00036   1.00000
 This molecule is an asymmetric top.
 Rotational symmetry number  1.
 Warning -- assumption of classical behavior for rotation
           may cause significant error
 Rotational temperatures (Kelvin)      0.01905     0.00715     0.00536
 Rotational constants (GHZ):           0.39697     0.14893     0.11170
    6 imaginary frequencies ignored.
 Zero-point vibrational energy     973122.6 (Joules/Mol)
                                  232.58190 (Kcal/Mol)
 Warning -- explicit consideration of  33 degrees of freedom as
           vibrations may cause significant error
 Vibrational temperatures:     20.66    37.79   103.35   108.60   132.70
          (Kelvin)            154.15   227.59   238.80   260.76   304.69
                              341.25   393.05   411.30   424.12   428.43
                              449.08   458.13   469.00   497.87   512.07
                              544.27   581.43   606.70   619.04   634.72
                              681.75   705.63   739.04   763.25   816.10
                              834.01   853.95   891.85   926.64   944.13
                             1000.33  1021.65  1029.02  1058.03  1129.45
                             1162.36  1219.91  1235.71  1334.44  1371.46
                             1395.72  1397.89  1416.29  1437.79  1444.78
                             1460.34  1498.00  1505.60  1537.04  1540.63
                             1548.25  1562.00  1579.42  1586.19  1588.47
                             1593.19  1612.66  1629.81  1645.66  1655.24
                             1662.49  1674.61  1688.59  1707.30  1736.67
                             1742.39  1779.40  1782.84  1785.13  1810.82
                             1834.82  1836.06  1840.75  1856.89  1860.85
                             1878.97  1883.62  1894.79  1908.58  1917.82
                             1930.95  1937.64  1943.40  1966.78  1978.86
                             1981.25  1995.59  2019.62  2019.85  2064.10
                             2072.69  2112.11  2118.05  2124.90  2131.06
                             2148.51  4665.78  4682.41  4684.32  4699.86
                             4708.87  4711.80  4713.96  4722.70  4725.69
                             4728.25  4734.47  4748.49  4752.59  4763.39
                             4774.74  4779.25  4826.55  4835.77  4840.41
                             4851.20  5593.27  5593.50

 Zero-point correction=                           0.370643 (Hartree/Particle)
 Thermal correction to Energy=                    0.389943
 Thermal correction to Enthalpy=                  0.390888
 Thermal correction to Gibbs Free Energy=         0.322097
 Sum of electronic and zero-point Energies=          -1297.615236
 Sum of electronic and thermal Energies=             -1297.595936
 Sum of electronic and thermal Enthalpies=           -1297.594992
 Sum of electronic and thermal Free Energies=        -1297.663782

                     E (Thermal)             CV                S
                      KCal/Mol        Cal/Mol-Kelvin    Cal/Mol-Kelvin
 Total                  244.693             78.085            144.781
 Electronic               0.000              0.000              0.000
 Translational            0.889              2.981             43.384
 Rotational               0.889              2.981             35.142
 Vibrational            242.916             72.124             66.255
 Vibration     1          0.593              1.986              7.292
 Vibration     2          0.593              1.985              6.093
 Vibration     3          0.598              1.967              4.102
 Vibration     4          0.599              1.965              4.005
 Vibration     5          0.602              1.955              3.612
 Vibration     6          0.606              1.944              3.320
 Vibration     7          0.621              1.893              2.571
 Vibration     8          0.624              1.884              2.481
 Vibration     9          0.630              1.865              2.316
 Vibration    10          0.643              1.823              2.028
 Vibration    11          0.656              1.784              1.824
 Vibration    12          0.676              1.723              1.576
 Vibration    13          0.684              1.700              1.498
 Vibration    14          0.689              1.683              1.446
 Vibration    15          0.691              1.678              1.429
 Vibration    16          0.700              1.651              1.351
 Vibration    17          0.705              1.638              1.318
 Vibration    18          0.710              1.624              1.280
 Vibration    19          0.724              1.583              1.184
 Vibration    20          0.731              1.563              1.140
 Vibration    21          0.749              1.516              1.046
 Vibration    22          0.769              1.461              0.948
 Vibration    23          0.784              1.423              0.886
 Vibration    24          0.791              1.404              0.858
 Vibration    25          0.801              1.380              0.823
 Vibration    26          0.831              1.308              0.727
 Vibration    27          0.846              1.271              0.682
 Vibration    28          0.869              1.220              0.625
 Vibration    29          0.885              1.183              0.586
 Vibration    30          0.923              1.102              0.510
 Vibration    31          0.936              1.075              0.486
 Vibration    32          0.951              1.046              0.461
 Vibration    33          0.980              0.990              0.417

 Normal termination of Gaussian 09 at Wed Mar 23 17:47:59 2016.
