 Gaussian 09, Revision B.01,
 Gaussian 09:  EM64L-G09RevB.01 12-Aug-2010

 --------------------------------------------------
 # freq=raman b3lyp/6-31+g(2df,p) geom=connectivity
 --------------------------------------------------

 ------------
 450 6000.com
 ------------
 Symbolic Z-matrix:
 Charge =  0 Multiplicity = 1

                         Standard orientation:
 ---------------------------------------------------------------------
 Center     Atomic      Atomic             Coordinates (Angstroms)
 Number     Number       Type             X           Y           Z
 ---------------------------------------------------------------------
      1          8           0        5.041708   -0.674284   -0.853244
      2          6           0        3.928720   -0.218250   -0.070853
      3          6           0        3.358019    1.156470   -0.376856
      4          8           0        4.303844    2.042899    0.237601
      5          1           0        5.234551    1.891915   -0.096010
      6          6           0        2.028870    1.681832    0.139921
      7          8           0        1.437717    2.872592   -0.401317
      8          1           0        2.152597    3.563052   -0.505590
      9          6           0        2.880229   -2.578024   -0.113994
     10          8           0        3.251602   -2.761277    1.259867
     11          1           0        3.495133   -3.727750    1.337635
     12          6           0        2.700849   -1.081284   -0.310031
     13          8           0        1.634590   -0.597331    0.520433
     14          6           0        1.025729    0.559682   -0.071299
     15          8           0       -0.221274    0.617454    0.634949
     16          6           0       -1.477206    0.426797   -0.033169
     17          6           0       -1.759481   -1.059037    0.118705
     18          8           0       -0.707753   -1.963453   -0.247309
     19          1           0        0.139295   -1.513088    0.033635
     20          6           0       -3.141180   -1.421619   -0.401512
     21          8           0       -3.539825   -2.752226   -0.761243
     22          1           0       -3.096891   -2.913387   -1.644627
     23          6           0       -2.443868    2.496080    0.626353
     24          8           0       -2.505719    2.977870   -0.723639
     25          1           0       -1.929880    3.785065   -0.849919
     26          6           0       -2.679197    0.996537    0.703174
     27          8           0       -4.022406    0.635694    0.351410
     28          6           0       -4.295964   -0.772837    0.344886
     29          8           0       -5.543504   -0.630355   -0.349572
     30          1           0       -6.139299   -0.086709    0.171080
     31          1           0       -4.420225   -1.159540    1.334795
     32          1           0       -3.154952   -0.919768   -1.346423
     33          1           0       -1.843599   -1.192493    1.177012
     34          1           0       -1.446719    0.726277   -1.059952
     35          1           0       -2.559791    0.719749    1.729834
     36          1           0       -3.189511    2.995755    1.208798
     37          1           0       -1.478702    2.718182    1.031354
     38          1           0        5.860746   -0.452521   -0.404249
     39          1           0        1.962069   -3.088224   -0.317903
     40          1           0        3.654614   -2.942760   -0.756018
     41          1           0        2.404375   -0.931386   -1.327151
     42          1           0        4.190883   -0.263682    0.965538
     43          1           0        3.388829    1.304688   -1.436093
     44          1           0        2.133658    1.829999    1.194419
     45          1           0        0.857859    0.397882   -1.115588
 ---------------------------------------------------------------------

 SCF Done:  E(RB3LYP) =  -1297.96189696     A.U. after   14 cycles

 The electronic state is 1-A.
 Alpha  occ. eigenvalues --  -19.19277 -19.18786 -19.18322 -19.17799 -19.17552
 Alpha  occ. eigenvalues --  -19.16330 -19.16034 -19.15104 -19.14759 -19.14511
 Alpha  occ. eigenvalues --  -19.14021 -10.31282 -10.29001 -10.26452 -10.26382
 Alpha  occ. eigenvalues --  -10.26257 -10.25788 -10.24825 -10.24107 -10.24077
 Alpha  occ. eigenvalues --  -10.23812 -10.23070 -10.22407  -1.10508  -1.07729
 Alpha  occ. eigenvalues --   -1.06973  -1.05234  -1.04305  -1.03577  -1.02686
 Alpha  occ. eigenvalues --   -1.02015  -1.01244  -1.00279  -0.99109  -0.82504
 Alpha  occ. eigenvalues --   -0.81481  -0.79030  -0.77574  -0.72090  -0.69741
 Alpha  occ. eigenvalues --   -0.67665  -0.64595  -0.63277  -0.62100  -0.60800
 Alpha  occ. eigenvalues --   -0.59752  -0.56994  -0.56126  -0.55132  -0.54106
 Alpha  occ. eigenvalues --   -0.53435  -0.53303  -0.52651  -0.52207  -0.50510
 Alpha  occ. eigenvalues --   -0.49972  -0.49741  -0.48699  -0.48043  -0.46413
 Alpha  occ. eigenvalues --   -0.45911  -0.45052  -0.44366  -0.43340  -0.43145
 Alpha  occ. eigenvalues --   -0.42357  -0.42090  -0.41029  -0.39927  -0.39236
 Alpha  occ. eigenvalues --   -0.38749  -0.37534  -0.37027  -0.36316  -0.35801
 Alpha  occ. eigenvalues --   -0.35291  -0.35057  -0.34377  -0.33796  -0.33486
 Alpha  occ. eigenvalues --   -0.32888  -0.31412  -0.30938  -0.30361  -0.29258
 Alpha  occ. eigenvalues --   -0.28897  -0.28379  -0.27568  -0.27519  -0.26987
 Alpha  occ. eigenvalues --   -0.25517
 Alpha virt. eigenvalues --   -0.03616  -0.01467  -0.00794  -0.00333   0.00752
 Alpha virt. eigenvalues --    0.01078   0.01249   0.02518   0.02804   0.03129
 Alpha virt. eigenvalues --    0.03600   0.04352   0.04549   0.04835   0.05808

 Mulliken atomic charges:
              1
     1  O   -0.461588
     2  C   -0.334798
     3  C    0.297746
     4  O   -0.501130
     5  H    0.334560
     6  C   -0.417647
     7  O   -0.478635
     8  H    0.358721
     9  C   -0.567428
    10  O   -0.439769
    11  H    0.339780
    12  C    0.394496
    13  O   -0.044090
    14  C    0.104632
    15  O   -0.111829
    16  C    0.145464
    17  C    0.194317
    18  O   -0.513585
    19  H    0.421364
    20  C   -0.299967
    21  O   -0.415622
    22  H    0.337668
    23  C   -0.519833
    24  O   -0.431568
    25  H    0.340754
    26  C   -0.064689
    27  O   -0.094550
    28  C    0.187158
    29  O   -0.415023
    30  H    0.338789
    31  H    0.128936
    32  H    0.120778
    33  H    0.101561
    34  H    0.155241
    35  H    0.124354
    36  H    0.132188
    37  H    0.171446
    38  H    0.344014
    39  H    0.162228
    40  H    0.159908
    41  H    0.113290
    42  H    0.164263
    43  H    0.138950
    44  H    0.151651
    45  H    0.147494
 Sum of Mulliken atomic charges =   0.00000

 Dipole moment (field-independent basis, Debye):
    X=              7.3067    Y=              1.9268    Z=             -0.1957  Tot=              7.5591
 Quadrupole moment (field-independent basis, Debye-Ang):
   XX=           -125.9757   YY=           -131.9202   ZZ=           -138.0827
   XY=             -7.3170   XZ=            -13.4797   YZ=              1.4181

  Exact polarizability: 230.123   0.947 194.985  -2.113   1.570 148.563
 Approx polarizability: 274.512  -0.409 256.447  -0.676   0.910 243.878

 ******    8 imaginary frequencies (negative Signs) ******

                     1                      2                      3
                     A                      A                      A
 Frequencies --  -320.3256              -142.4388              -131.9681
 Red. masses --     1.1022                 2.3503                 2.3147
 Frc consts  --     0.0666                 0.0281                 0.0238
 IR Inten    --   148.7422                 7.2887                22.5627
 Raman Activ --     2.3446                 0.0784                 0.6540

                     4                      5                      6
                     A                      A                      A
 Frequencies --  -112.7882               -93.1926               -67.8887
 Red. masses --     5.9152                 1.8292                 4.1778
 Frc consts  --     0.0443                 0.0094                 0.0113
 IR Inten    --     0.6019                60.3369                 5.0800
 Raman Activ --     0.0477                 0.2050                 0.3183

                     7                      8                      9
                     A                      A                      A
 Frequencies --   -47.0412               -14.5275                40.1770
 Red. masses --     5.4556                 6.0177                 6.0259
 Frc consts  --     0.0071                 0.0007                 0.0057
 IR Inten    --     3.5664                 0.4108                 1.3422
 Raman Activ --     0.0500                 0.1581                 0.0643

                    10                     11                     12
                     A                      A                      A
 Frequencies --    76.2360                83.1406               112.8426
 Red. masses --     5.2768                 5.5349                 6.5379
 Frc consts  --     0.0181                 0.0225                 0.0490
 IR Inten    --     8.8568                 6.4239                 1.6866
 Raman Activ --     0.0881                 0.0514                 0.2961

                    13                     14                     15
                     A                      A                      A
 Frequencies --   131.9542               164.4750               179.8826
 Red. masses --     3.8369                 5.6703                 6.4677
 Frc consts  --     0.0394                 0.0904                 0.1233
 IR Inten    --     0.0386                 1.5079                 3.2721
 Raman Activ --     0.4533                 1.6005                 0.4871

                    16                     17                     18
                     A                      A                      A
 Frequencies --   204.6895               229.6951               237.7703
 Red. masses --     3.2222                 5.4198                 5.4532
 Frc consts  --     0.0795                 0.1685                 0.1816
 IR Inten    --     2.0064                 0.2214                 1.0355
 Raman Activ --     0.1517                 0.9822                 0.2700

                    19                     20                     21
                     A                      A                      A
 Frequencies --   251.2382               259.9290               277.8011
 Red. masses --     5.9150                 5.3008                 3.6630
 Frc consts  --     0.2200                 0.2110                 0.1666
 IR Inten    --     0.6514                 4.0288                14.0700
 Raman Activ --     0.4199                 2.3732                 0.5895

                    22                     23                     24
                     A                      A                      A
 Frequencies --   291.6096               301.5580               324.0738
 Red. masses --     4.6497                 5.8830                 4.6998
 Frc consts  --     0.2330                 0.3152                 0.2908
 IR Inten    --     1.9145                 0.4928                10.9187
 Raman Activ --     0.7034                 0.9151                 1.2642

                    25                     26                     27
                     A                      A                      A
 Frequencies --   333.6890               370.7704               374.5825
 Red. masses --     6.5073                 6.0715                 5.6813
 Frc consts  --     0.4269                 0.4918                 0.4697
 IR Inten    --    11.0682                11.9881                 2.2676
 Raman Activ --     3.9606                 3.1827                 1.0662

                    28                     29                     30
                     A                      A                      A
 Frequencies --   411.3192               418.8378               454.3636
 Red. masses --     4.9930                 4.9450                 4.0803
 Frc consts  --     0.4977                 0.5111                 0.4963
 IR Inten    --     7.7555                 6.0982                 3.0137
 Raman Activ --     1.3933                 3.5745                 0.6567

                    31                     32                     33
                     A                      A                      A
 Frequencies --   460.9621               500.3369               528.5230
 Red. masses --     6.0046                 5.1762                 5.1566
 Frc consts  --     0.7517                 0.7635                 0.8487
 IR Inten    --    15.1127                13.2115                14.1840
 Raman Activ --     1.0811                 9.5306                 4.1637

                    34                     35                     36
                     A                      A                      A
 Frequencies --   553.3247               558.4221               569.1335
 Red. masses --     3.6532                 3.9549                 3.3447
 Frc consts  --     0.6590                 0.7266                 0.6383
 IR Inten    --     2.5318                27.1961                31.1324
 Raman Activ --     0.9882                 0.5891                 0.9656

                    37                     38                     39
                     A                      A                      A
 Frequencies --   585.1042               591.6527               653.2173
 Red. masses --     6.1142                 3.5796                 4.7295
 Frc consts  --     1.2333                 0.7383                 1.1890
 IR Inten    --    26.7924                10.6600                 2.8039
 Raman Activ --     2.9138                 0.7842                 0.7716

                    40                     41                     42
                     A                      A                      A
 Frequencies --   676.5754               703.4390               716.8262
 Red. masses --     1.3279                 3.2748                 2.0381
 Frc consts  --     0.3581                 0.9547                 0.6170
 IR Inten    --   119.2819                 3.9782                30.6490
 Raman Activ --     0.8051                 1.3572                 1.5186

                    43                     44                     45
                     A                      A                      A
 Frequencies --   726.8843               731.9475               740.0231
 Red. masses --     1.1118                 1.1793                 1.0876
 Frc consts  --     0.3461                 0.3723                 0.3509
 IR Inten    --    95.6116                87.5011                93.1058
 Raman Activ --     1.2182                 1.0559                 1.3831

                    46                     47                     48
                     A                      A                      A
 Frequencies --   751.2061               838.7155               848.2406
 Red. masses --     1.0793                 1.0817                 2.6554
 Frc consts  --     0.3589                 0.4483                 1.1257
 IR Inten    --   100.7777                46.7232                13.7977
 Raman Activ --     2.1481                 0.4207                 5.0863

                    49                     50                     51
                     A                      A                      A
 Frequencies --   872.6713               905.6583               913.6195
 Red. masses --     2.7759                 2.8303                 2.4961
 Frc consts  --     1.2455                 1.3677                 1.2276
 IR Inten    --    13.5913                36.3020                 9.2438
 Raman Activ --     4.1006                 3.4997                 1.7382

                    52                     53                     54
                     A                      A                      A
 Frequencies --   932.4544               937.0686               987.6527
 Red. masses --     5.9887                 5.6480                 5.4555
 Frc consts  --     3.0679                 2.9221                 3.1354
 IR Inten    --   265.2174                13.5029               167.6841
 Raman Activ --     4.2139                 1.9488                 4.1539

                    55                     56                     57
                     A                      A                      A
 Frequencies --   989.3122              1009.4743              1023.3192
 Red. masses --     4.8432                 4.2190                 5.1445
 Frc consts  --     2.7929                 2.5331                 3.1741
 IR Inten    --    24.0757               449.3185                40.9821
 Raman Activ --     4.3860                 4.2305                 0.6365

                    58                     59                     60
                     A                      A                      A
 Frequencies --  1035.2817              1039.5515              1048.6306
 Red. masses --     4.9243                 4.8857                 5.3258
 Frc consts  --     3.1097                 3.1108                 3.4505
 IR Inten    --    27.8544                37.8901               227.5227
 Raman Activ --     7.3332                 2.8089                 2.1841

                    61                     62                     63
                     A                      A                      A
 Frequencies --  1054.6347              1068.6460              1072.5853
 Red. masses --     3.8034                 5.0106                 2.4255
 Frc consts  --     2.4924                 3.3714                 1.6441
 IR Inten    --    81.7528                46.9664                20.6725
 Raman Activ --     7.1213                 2.3118                 1.4175

                    64                     65                     66
                     A                      A                      A
 Frequencies --  1079.1215              1097.1373              1107.4555
 Red. masses --     3.6103                 3.4231                 2.6783
 Frc consts  --     2.4770                 2.4277                 1.9354
 IR Inten    --    34.8355                 7.9803                40.8417
 Raman Activ --    17.9335                 5.1443                 3.1175

                    67                     68                     69
                     A                      A                      A
 Frequencies --  1116.9784              1122.7391              1124.8425
 Red. masses --     2.5107                 2.1729                 2.2971
 Frc consts  --     1.8456                 1.6138                 1.7125
 IR Inten    --    53.7292                71.8928                14.8150
 Raman Activ --     1.6583                 4.2300                 2.4273

                    70                     71                     72
                     A                      A                      A
 Frequencies --  1142.4929              1148.4397              1152.9695
 Red. masses --     2.1564                 2.2857                 2.0956
 Frc consts  --     1.6584                 1.7762                 1.6413
 IR Inten    --    10.2315                25.0591                 9.4934
 Raman Activ --     4.4779                 4.2358                 2.2026

                    73                     74                     75
                     A                      A                      A
 Frequencies --  1164.1206              1174.8493              1179.7825
 Red. masses --     1.8984                 1.4945                 1.5572
 Frc consts  --     1.5158                 1.2154                 1.2770
 IR Inten    --    43.4529                 5.4939                41.5187
 Raman Activ --     1.9109                 2.9591                 1.0499

                    76                     77                     78
                     A                      A                      A
 Frequencies --  1200.2482              1208.9424              1217.1725
 Red. masses --     1.5079                 2.0977                 1.2463
 Frc consts  --     1.2799                 1.8064                 1.0879
 IR Inten    --    14.9236                79.7764                 8.6269
 Raman Activ --     0.5142                 3.9897                 3.8481

                    79                     80                     81
                     A                      A                      A
 Frequencies --  1220.1521              1239.9621              1246.4099
 Red. masses --     1.7045                 1.2699                 1.1714
 Frc consts  --     1.4952                 1.1504                 1.0722
 IR Inten    --     1.7765                 5.2355                17.0272
 Raman Activ --     2.2938                 2.8932                 6.4006

                    82                     83                     84
                     A                      A                      A
 Frequencies --  1250.1200              1258.5296              1273.0537
 Red. masses --     1.2318                 1.3190                 1.3547
 Frc consts  --     1.1342                 1.2309                 1.2936
 IR Inten    --     5.2074                 8.2927                14.9376
 Raman Activ --     2.4671                 3.3735                 4.3346

                    85                     86                     87
                     A                      A                      A
 Frequencies --  1291.3449              1297.5025              1303.2881
 Red. masses --     1.3890                 1.3083                 1.2470
 Frc consts  --     1.3647                 1.2977                 1.2479
 IR Inten    --    20.2362                36.6083                15.5882
 Raman Activ --     3.7759                 1.8928                 2.0035

                    88                     89                     90
                     A                      A                      A
 Frequencies --  1313.8647              1316.2591              1336.2827
 Red. masses --     1.2462                 1.4508                 1.2168
 Frc consts  --     1.2674                 1.4810                 1.2802
 IR Inten    --    32.1383                38.8762                35.1623
 Raman Activ --     1.9797                 3.0502                 9.2572

                    91                     92                     93
                     A                      A                      A
 Frequencies --  1339.7354              1344.1626              1347.5034
 Red. masses --     1.2859                 1.1994                 1.3703
 Frc consts  --     1.3599                 1.2768                 1.4660
 IR Inten    --     9.4348                24.2533                13.4246
 Raman Activ --     3.8802                 2.4609                 5.2896

                    94                     95                     96
                     A                      A                      A
 Frequencies --  1369.7841              1374.5728              1386.0061
 Red. masses --     1.3717                 1.3406                 1.5710
 Frc consts  --     1.5164                 1.4924                 1.7781
 IR Inten    --    26.0150                 7.9290                 6.7739
 Raman Activ --     6.3274                 1.3737                 8.4343

                    97                     98                     99
                     A                      A                      A
 Frequencies --  1398.0528              1408.0019              1414.1954
 Red. masses --     1.3780                 1.1324                 1.6099
 Frc consts  --     1.5869                 1.3227                 1.8970
 IR Inten    --    16.3753                13.1529                17.4413
 Raman Activ --     3.2483                 1.3611                 3.1821

                   100                    101                    102
                     A                      A                      A
 Frequencies --  1428.3002              1431.5203              1436.4787
 Red. masses --     1.1359                 1.3306                 1.5163
 Frc consts  --     1.3654                 1.6065                 1.8435
 IR Inten    --    25.3537                18.0427                36.9745
 Raman Activ --     2.4697                 1.1618                 2.5760

                   103                    104                    105
                     A                      A                      A
 Frequencies --  1453.2107              1457.6279              1472.0734
 Red. masses --     1.1102                 1.0751                 1.3315
 Frc consts  --     1.3814                 1.3459                 1.7000
 IR Inten    --    16.5452                12.3798                29.3793
 Raman Activ --     3.3119                 5.3761                 3.5402

                   106                    107                    108
                     A                      A                      A
 Frequencies --  1494.5675              1514.7542              3230.9478
 Red. masses --     1.2902                 1.2586                 1.0784
 Frc consts  --     1.6981                 1.7014                 6.6324
 IR Inten    --    27.9410                43.2381                44.8312
 Raman Activ --     3.8785                 2.1168                94.0810

                   109                    110                    111
                     A                      A                      A
 Frequencies --  3248.5378              3257.3250              3258.9572
 Red. masses --     1.0830                 1.0614                 1.0666
 Frc consts  --     6.7335                 6.6352                 6.6742
 IR Inten    --    38.2886                20.9781                22.1809
 Raman Activ --    19.7413                86.0456                58.0049

                   112                    113                    114
                     A                      A                      A
 Frequencies --  3267.7101              3271.1332              3273.0589
 Red. masses --     1.0690                 1.0770                 1.0789
 Frc consts  --     6.7255                 6.7898                 6.8097
 IR Inten    --   161.8673                85.2633                95.2834
 Raman Activ --    14.8467               151.4959               149.6754

                   115                    116                    117
                     A                      A                      A
 Frequencies --  3274.1833              3282.6617              3289.0309
 Red. masses --     1.0780                 1.0810                 1.0857
 Frc consts  --     6.8092                 6.8630                 6.9197
 IR Inten    --   219.5493               101.0021                57.8604
 Raman Activ --    62.3173               162.0121               101.4485

                   118                    119                    120
                     A                      A                      A
 Frequencies --  3294.9906              3302.9356              3304.6466
 Red. masses --     1.0855                 1.0865                 1.0859
 Frc consts  --     6.9437                 6.9838                 6.9872
 IR Inten    --    10.9442                 4.2039                79.7531
 Raman Activ --     5.7401                23.0916                 8.6840

                   121                    122                    123
                     A                      A                      A
 Frequencies --  3317.0993              3325.3128              3346.1072
 Red. masses --     1.1055                 1.1101                 1.0663
 Frc consts  --     7.1671                 7.2325                 7.0342
 IR Inten    --    26.4613                15.3004                18.9023
 Raman Activ --    54.9118                51.3691               156.6086

                   124                    125                    126
                     A                      A                      A
 Frequencies --  3347.1927              3362.0827              3363.7985
 Red. masses --     1.0667                 1.0664                 1.0687
 Frc consts  --     7.0416                 7.1022                 7.1250
 IR Inten    --    37.2236                33.6649                37.3813
 Raman Activ --    70.9490               147.3640               104.1104

                   127                    128                    129
                     A                      A                      A
 Frequencies --  3373.5588              3869.4830              3875.6153
 Red. masses --     1.0660                 1.0674                 1.0667
 Frc consts  --     7.1480                 9.4164                 9.4398
 IR Inten    --    41.6540                60.6784                76.0659
 Raman Activ --   122.0384               123.3122               112.9033

 - Thermochemistry -
 -------------------
 Temperature   298.150 Kelvin.  Pressure   1.00000 Atm.
 Atom     1 has atomic number  8 and mass  15.99491

 Molecular mass:   342.11621 amu.
 Principal axes and moments of inertia in atomic units:
                           1         2         3
     Eigenvalues --  4205.34483********************
           X            0.99998  -0.00587  -0.00351
           Y            0.00588   0.99997   0.00420
           Z            0.00348  -0.00422   0.99999
 This molecule is an asymmetric top.
 Rotational symmetry number  1.
 Warning -- assumption of classical behavior for rotation
           may cause significant error
 Rotational temperatures (Kelvin)      0.02060     0.00693     0.00546
 Rotational constants (GHZ):           0.42915     0.14447     0.11378
    8 imaginary frequencies ignored.
 Zero-point vibrational energy     972245.2 (Joules/Mol)
                                  232.37218 (Kcal/Mol)
 Warning -- explicit consideration of  30 degrees of freedom as
           vibrations may cause significant error
 Vibrational temperatures:     57.81   109.69   119.62   162.36   189.85
          (Kelvin)            236.64   258.81   294.50   330.48   342.10
                              361.48   373.98   399.69   419.56   433.87
                              466.27   480.10   533.46   538.94   591.80
                              602.61   653.73   663.22   719.87   760.43
                              796.11   803.44   818.86   841.83   851.26
                              939.83   973.44  1012.09  1031.35  1045.82
                             1053.11  1064.73  1080.82  1206.72  1220.43
                             1255.58  1303.04  1314.49  1341.59  1348.23
                             1421.01  1423.40  1452.41  1472.33  1489.54
                             1495.68  1508.74  1517.38  1537.54  1543.21
                             1552.61  1578.53  1593.38  1607.08  1615.37
                             1618.40  1643.79  1652.35  1658.86  1674.91
                             1690.34  1697.44  1726.89  1739.40  1751.24
                             1755.52  1784.03  1793.30  1798.64  1810.74
                             1831.64  1857.95  1866.81  1875.14  1890.36
                             1893.80  1922.61  1927.58  1933.95  1938.75
                             1970.81  1977.70  1994.15  2011.48  2025.80
                             2034.71  2055.00  2059.64  2066.77  2090.84
                             2097.20  2117.98  2150.35  2179.39  4648.61
                             4673.92  4686.56  4688.91  4701.50  4706.43
                             4709.20  4710.81  4723.01  4732.18  4740.75
                             4752.18  4754.64  4772.56  4784.38  4814.30
                             4815.86  4837.28  4839.75  4853.79  5567.32
                             5576.14

 Zero-point correction=                           0.370309 (Hartree/Particle)
 Thermal correction to Energy=                    0.387995
 Thermal correction to Enthalpy=                  0.388940
 Thermal correction to Gibbs Free Energy=         0.325518
 Sum of electronic and zero-point Energies=          -1297.591588
 Sum of electronic and thermal Energies=             -1297.573902
 Sum of electronic and thermal Enthalpies=           -1297.572957
 Sum of electronic and thermal Free Energies=        -1297.636379

                     E (Thermal)             CV                S
                      KCal/Mol        Cal/Mol-Kelvin    Cal/Mol-Kelvin
 Total                  243.471             73.980            133.482
 Electronic               0.000              0.000              0.000
 Translational            0.889              2.981             43.384
 Rotational               0.889              2.981             35.076
 Vibrational            241.693             68.019             55.022
 Vibration     1          0.594              1.981              5.250
 Vibration     2          0.599              1.965              3.986
 Vibration     3          0.600              1.961              3.815
 Vibration     4          0.607              1.939              3.219
 Vibration     5          0.612              1.921              2.917
 Vibration     6          0.623              1.886              2.498
 Vibration     7          0.629              1.867              2.330
 Vibration     8          0.640              1.833              2.091
 Vibration     9          0.652              1.796              1.881
 Vibration    10          0.656              1.783              1.820
 Vibration    11          0.663              1.761              1.722
 Vibration    12          0.668              1.746              1.662
 Vibration    13          0.679              1.715              1.547
 Vibration    14          0.687              1.689              1.465
 Vibration    15          0.694              1.671              1.408
 Vibration    16          0.709              1.627              1.289
 Vibration    17          0.715              1.608              1.242
 Vibration    18          0.743              1.532              1.077
 Vibration    19          0.746              1.524              1.061
 Vibration    20          0.775              1.446              0.922
 Vibration    21          0.782              1.429              0.896
 Vibration    22          0.813              1.351              0.783
 Vibration    23          0.819              1.337              0.763
 Vibration    24          0.856              1.249              0.657
 Vibration    25          0.883              1.187              0.591
 Vibration    26          0.909              1.132              0.537
 Vibration    27          0.914              1.121              0.527
 Vibration    28          0.925              1.098              0.506
 Vibration    29          0.942              1.064              0.476
 Vibration    30          0.949              1.050              0.464

 Normal termination of Gaussian 09 at Tue Feb 16 09:49:30 2016.
