 Gaussian 09, Revision B.01,
 Gaussian 09:  EM64L-G09RevB.01 12-Aug-2010

 -------------------------------------------------
 # freq=raman b3lyp/6-31+g(2d,p) geom=connectivity
 -------------------------------------------------

 -----------------
 320 5672/5672.com
 -----------------
 Symbolic Z-matrix:
 Charge =  0 Multiplicity = 1

                         Standard orientation:
 ---------------------------------------------------------------------
 Center     Atomic      Atomic             Coordinates (Angstroms)
 Number     Number       Type             X           Y           Z
 ---------------------------------------------------------------------
      1          8           0       -5.026506   -0.264384    0.493055
      2          6           0       -3.757438   -0.044990   -0.140885
      3          6           0       -3.217269    1.300583    0.316240
      4          8           0       -4.125880    2.350344   -0.045427
      5          1           0       -5.027234    1.949561    0.118128
      6          6           0       -1.803029    1.526083   -0.190701
      7          8           0       -1.239821    2.749825    0.303372
      8          1           0       -0.312987    2.936417   -0.021177
      9          6           0       -3.075504   -2.575288   -0.239382
     10          8           0       -4.377128   -3.113145    0.032049
     11          1           0       -4.274985   -4.094099    0.196202
     12          6           0       -2.805925   -1.162246    0.252547
     13          8           0       -1.562902   -0.880940   -0.407268
     14          6           0       -0.951746    0.305151    0.119508
     15          8           0        0.263924    0.450226   -0.629002
     16          6           0        1.490787    0.281353    0.094718
     17          6           0        1.998415   -1.126406   -0.172559
     18          8           0        1.091216   -2.220369    0.022639
     19          1           0        0.181224   -2.017071   -0.339283
     20          6           0        3.397852   -1.490668    0.295137
     21          8           0        3.771659   -2.791951   -0.181316
     22          1           0        4.715003   -2.969483    0.098352
     23          6           0        2.396439    2.578210    0.002488
     24          8           0        1.186070    3.321430   -0.202833
     25          1           0        1.431430    4.283628   -0.084354
     26          6           0        2.665757    1.128580   -0.368115
     27          8           0        4.009263    0.967390    0.107790
     28          6           0        4.374409   -0.402356   -0.117539
     29          8           0        5.529867   -0.683731    0.685773
     30          1           0        6.279111   -0.868976    0.114880
     31          1           0        4.625394   -0.531324   -1.149660
     32          1           0        3.384983   -1.527640    1.364421
     33          1           0        2.112546   -1.115344   -1.236397
     34          1           0        1.324955    0.420159    1.142636
     35          1           0        2.697688    1.065969   -1.435805
     36          1           0        2.584505    2.636673    1.054207
     37          1           0        3.156941    3.139971   -0.498472
     38          1           0       -5.703341   -0.381071   -0.177675
     39          1           0       -2.350919   -3.223846    0.206991
     40          1           0       -2.927005   -2.589677   -1.298930
     41          1           0       -2.662820   -1.165094    1.312930
     42          1           0       -3.883564   -0.038706   -1.203407
     43          1           0       -3.169946    1.277247    1.384938
     44          1           0       -1.857784    1.611533   -1.255877
     45          1           0       -0.757789    0.215571    1.167962
 ---------------------------------------------------------------------

 SCF Done:  E(RB3LYP) =  -1297.97097350     A.U. after   13 cycles

 The electronic state is 1-A.
 Alpha  occ. eigenvalues --  -19.19966 -19.19217 -19.18416 -19.18365 -19.18116
 Alpha  occ. eigenvalues --  -19.16720 -19.16558 -19.16085 -19.14615 -19.14033
 Alpha  occ. eigenvalues --  -19.11885 -10.31103 -10.30245 -10.26984 -10.26371
 Alpha  occ. eigenvalues --  -10.25276 -10.25231 -10.25199 -10.24777 -10.24039
 Alpha  occ. eigenvalues --  -10.23885 -10.23469 -10.23360  -1.10284  -1.09723
 Alpha  occ. eigenvalues --   -1.06232  -1.05234  -1.04622  -1.04122  -1.03032
 Alpha  occ. eigenvalues --   -1.02515  -1.01259  -1.00378  -0.98771  -0.83089
 Alpha  occ. eigenvalues --   -0.79757  -0.79681  -0.78433  -0.72002  -0.69707
 Alpha  occ. eigenvalues --   -0.67499  -0.65092  -0.63563  -0.62119  -0.61458
 Alpha  occ. eigenvalues --   -0.60173  -0.56633  -0.56361  -0.55350  -0.54718
 Alpha  occ. eigenvalues --   -0.53805  -0.53650  -0.52982  -0.51838  -0.51669
 Alpha  occ. eigenvalues --   -0.51318  -0.49473  -0.49128  -0.48387  -0.46607
 Alpha  occ. eigenvalues --   -0.45969  -0.45176  -0.44605  -0.43682  -0.43178
 Alpha  occ. eigenvalues --   -0.42085  -0.41997  -0.40638  -0.40365  -0.39995
 Alpha  occ. eigenvalues --   -0.38696  -0.38428  -0.37319  -0.36378  -0.35927
 Alpha  occ. eigenvalues --   -0.35812  -0.35296  -0.34433  -0.33772  -0.33281
 Alpha  occ. eigenvalues --   -0.32877  -0.31261  -0.30867  -0.30759  -0.29556
 Alpha  occ. eigenvalues --   -0.29127  -0.28697  -0.28626  -0.26852  -0.26528
 Alpha  occ. eigenvalues --   -0.25699
 Alpha virt. eigenvalues --   -0.02275  -0.02178  -0.01561  -0.00217   0.00261
 Alpha virt. eigenvalues --    0.01013   0.01836   0.02421   0.03034   0.03398
 Alpha virt. eigenvalues --    0.03898   0.04473   0.04667   0.05245   0.05638

 Mulliken atomic charges:
              1
     1  O   -0.549618
     2  C   -0.047927
     3  C    0.324179
     4  O   -0.560406
     5  H    0.341081
     6  C   -0.119992
     7  O   -0.618273
     8  H    0.447666
     9  C   -0.303631
    10  O   -0.526573
    11  H    0.336164
    12  C    0.184546
    13  O   -0.259819
    14  C    0.224631
    15  O   -0.235140
    16  C    0.330621
    17  C    0.178386
    18  O   -0.587706
    19  H    0.368498
    20  C    0.124495
    21  O   -0.526740
    22  H    0.336052
    23  C   -0.357057
    24  O   -0.577978
    25  H    0.363023
    26  C   -0.136562
    27  O   -0.251743
    28  C    0.150054
    29  O   -0.543219
    30  H    0.335113
    31  H    0.133850
    32  H    0.129533
    33  H    0.106070
    34  H    0.114629
    35  H    0.129674
    36  H    0.159071
    37  H    0.143194
    38  H    0.343527
    39  H    0.144462
    40  H    0.149159
    41  H    0.111939
    42  H    0.125113
    43  H    0.116604
    44  H    0.123842
    45  H    0.127209
 Sum of Mulliken atomic charges =   0.00000

 Dipole moment (field-independent basis, Debye):
    X=              3.4862    Y=             -0.6797    Z=             -1.4773  Tot=              3.8468
 Quadrupole moment (field-independent basis, Debye-Ang):
   XX=           -117.4422   YY=           -136.6768   ZZ=           -139.2928
   XY=             16.2162   XZ=             -1.8895   YZ=             -1.9926

  Exact polarizability: 234.933  -0.709 198.242   0.212   0.197 142.664
 Approx polarizability: 275.934   0.328 259.750   0.975   0.462 238.146

 ******    7 imaginary frequencies (negative Signs) ******

                     1                      2                      3
                     A                      A                      A
 Frequencies --  -324.0412              -240.5761              -187.0413
 Red. masses --     1.7481                 1.7400                 1.2614
 Frc consts  --     0.1081                 0.0593                 0.0260
 IR Inten    --     1.2459                10.6795                93.8522
 Raman Activ --     0.0427                 0.1133                 0.7172

                     4                      5                      6
                     A                      A                      A
 Frequencies --  -148.6077               -86.1190               -69.0234
 Red. masses --     1.2495                 7.1335                 5.9587
 Frc consts  --     0.0163                 0.0312                 0.0167
 IR Inten    --   107.1181                 1.6885                 1.0852
 Raman Activ --     0.9175                 0.0092                 0.0623

                     7                      8                      9
                     A                      A                      A
 Frequencies --   -38.2743                39.5590                69.0379
 Red. masses --     6.0560                 6.3553                 6.2486
 Frc consts  --     0.0052                 0.0059                 0.0175
 IR Inten    --     2.0504                 1.4562                 3.6853
 Raman Activ --     0.0219                 0.0692                 0.2627

                    10                     11                     12
                     A                      A                      A
 Frequencies --    85.5725                88.7729               106.9628
 Red. masses --     6.4835                 6.4816                 6.0760
 Frc consts  --     0.0280                 0.0301                 0.0410
 IR Inten    --     5.0842                 1.4147                 0.9902
 Raman Activ --     0.0444                 0.0403                 0.0294

                    13                     14                     15
                     A                      A                      A
 Frequencies --   155.9181               178.9459               203.4358
 Red. masses --     6.3106                 8.0922                 6.6974
 Frc consts  --     0.0904                 0.1527                 0.1633
 IR Inten    --     2.5470                 0.0455                 1.0327
 Raman Activ --     0.3530                 0.6762                 1.5327

                    16                     17                     18
                     A                      A                      A
 Frequencies --   205.3273               240.2908               276.1072
 Red. masses --     6.1454                 6.1663                 4.2524
 Frc consts  --     0.1527                 0.2098                 0.1910
 IR Inten    --     2.6372                 0.4793                15.8435
 Raman Activ --     1.7054                 0.5949                 0.4488

                    19                     20                     21
                     A                      A                      A
 Frequencies --   284.0252               297.8474               307.0135
 Red. masses --     4.4092                 4.1886                 5.6859
 Frc consts  --     0.2096                 0.2189                 0.3158
 IR Inten    --     2.3409                 1.2270                 0.7943
 Raman Activ --     0.1085                 0.0541                 0.4725

                    22                     23                     24
                     A                      A                      A
 Frequencies --   313.0318               325.6361               331.9852
 Red. masses --     6.7856                 4.7922                 6.5286
 Frc consts  --     0.3918                 0.2994                 0.4239
 IR Inten    --     5.5938                 7.7588                 1.1239
 Raman Activ --     3.0837                 0.5453                 2.6417

                    25                     26                     27
                     A                      A                      A
 Frequencies --   345.2375               368.4182               374.3576
 Red. masses --     4.8530                 7.1370                 5.4139
 Frc consts  --     0.3408                 0.5708                 0.4470
 IR Inten    --     8.8682                 0.1029                 7.6073
 Raman Activ --     2.0568                 3.1098                 0.1804

                    28                     29                     30
                     A                      A                      A
 Frequencies --   408.3035               427.8244               431.4933
 Red. masses --     4.9358                 5.3584                 5.0517
 Frc consts  --     0.4848                 0.5779                 0.5542
 IR Inten    --    17.8052                 2.8541                 2.8852
 Raman Activ --     1.6787                 3.4689                 3.3290

                    31                     32                     33
                     A                      A                      A
 Frequencies --   443.6458               471.7361               481.9189
 Red. masses --     5.3768                 4.1263                 3.3561
 Frc consts  --     0.6235                 0.5410                 0.4592
 IR Inten    --     2.1359                 6.8159                10.7741
 Raman Activ --     1.9743                 2.7043                 3.6865

                    34                     35                     36
                     A                      A                      A
 Frequencies --   496.0099               525.6511               563.5956
 Red. masses --     5.3720                 3.3259                 3.6336
 Frc consts  --     0.7787                 0.5414                 0.6800
 IR Inten    --     1.2183                15.6088                16.8063
 Raman Activ --     3.2334                 4.0571                 0.9737

                    37                     38                     39
                     A                      A                      A
 Frequencies --   584.5269               595.5697               611.3160
 Red. masses --     5.7866                 3.4314                 4.9927
 Frc consts  --     1.1649                 0.7171                 1.0993
 IR Inten    --     2.5121                21.0358                39.2636
 Raman Activ --     0.8101                 0.6683                 0.5202

                    40                     41                     42
                     A                      A                      A
 Frequencies --   622.8821               673.4995               691.5919
 Red. masses --     3.9383                 4.2570                 1.1518
 Frc consts  --     0.9003                 1.1377                 0.3246
 IR Inten    --    16.6796                23.4663                79.6554
 Raman Activ --     1.0104                 0.8975                 1.9384

                    43                     44                     45
                     A                      A                      A
 Frequencies --   700.3590               738.6371               765.1536
 Red. masses --     1.0776                 1.0639                 1.0584
 Frc consts  --     0.3114                 0.3420                 0.3651
 IR Inten    --   123.5594               101.0873               118.0450
 Raman Activ --     1.7213                 1.8719                 2.8149

                    46                     47                     48
                     A                      A                      A
 Frequencies --   772.4771               802.1747               848.5667
 Red. masses --     1.0682                 1.0583                 1.7348
 Frc consts  --     0.3756                 0.4012                 0.7360
 IR Inten    --    73.8148                71.8502                 4.2170
 Raman Activ --     1.2865                 0.7934                 1.9733

                    49                     50                     51
                     A                      A                      A
 Frequencies --   865.3734               933.2754               957.0441
 Red. masses --     1.7031                 6.3306                 5.6083
 Frc consts  --     0.7514                 3.2488                 3.0265
 IR Inten    --     2.6143                57.8395                25.2729
 Raman Activ --     0.5197                 1.6830                 0.5767

                    52                     53                     54
                     A                      A                      A
 Frequencies --   976.2621               981.3229               987.7823
 Red. masses --     6.2420                 7.5956                 4.1323
 Frc consts  --     3.5052                 4.3096                 2.3755
 IR Inten    --    96.1812               122.3338                22.2521
 Raman Activ --     2.3847                 1.0875                 0.4758

                    55                     56                     57
                     A                      A                      A
 Frequencies --  1002.2770              1013.5925              1019.3650
 Red. masses --     6.9606                 6.3748                 6.0175
 Frc consts  --     4.1197                 3.8587                 3.6840
 IR Inten    --   620.3034                 8.5750               134.2359
 Raman Activ --     2.1900                 2.0622                 3.1448

                    58                     59                     60
                     A                      A                      A
 Frequencies --  1030.2893              1055.1012              1063.7857
 Red. masses --     6.1678                 5.4304                 5.1215
 Frc consts  --     3.8574                 3.5618                 3.4147
 IR Inten    --   243.8495                36.1530                20.4048
 Raman Activ --     3.2028                10.7349                 1.7624

                    61                     62                     63
                     A                      A                      A
 Frequencies --  1067.3050              1071.4058              1080.3381
 Red. masses --     5.7330                 4.2284                 2.8131
 Frc consts  --     3.8478                 2.8598                 1.9345
 IR Inten    --    82.1472                43.9108                13.1140
 Raman Activ --     1.4669                 4.2064                11.6380

                    64                     65                     66
                     A                      A                      A
 Frequencies --  1094.0570              1101.3262              1119.1734
 Red. masses --     3.4385                 2.5171                 2.8117
 Frc consts  --     2.4249                 1.7988                 2.0750
 IR Inten    --    74.8070                45.5003                18.7039
 Raman Activ --    21.0357                 3.0009                 5.4192

                    67                     68                     69
                     A                      A                      A
 Frequencies --  1124.2678              1127.9762              1138.4945
 Red. masses --     2.6367                 2.9632                 2.2986
 Frc consts  --     1.9636                 2.2213                 1.7554
 IR Inten    --    16.4535                83.9868                41.8320
 Raman Activ --     2.3743                 2.9996                 9.6854

                    70                     71                     72
                     A                      A                      A
 Frequencies --  1146.7741              1148.0545              1154.6037
 Red. masses --     2.6300                 1.7967                 1.9625
 Frc consts  --     2.0378                 1.3953                 1.5415
 IR Inten    --     5.1871                38.4734                11.2946
 Raman Activ --     1.9078                 3.9452                 3.8901

                    73                     74                     75
                     A                      A                      A
 Frequencies --  1173.3244              1175.9910              1181.6865
 Red. masses --     2.0059                 1.7515                 2.1700
 Frc consts  --     1.6270                 1.4272                 1.7853
 IR Inten    --    21.0248                45.2136                 9.3691
 Raman Activ --     3.0395                 1.4110                 1.8262

                    76                     77                     78
                     A                      A                      A
 Frequencies --  1198.8973              1225.2537              1228.2447
 Red. masses --     1.2146                 1.5817                 1.3690
 Frc consts  --     1.0286                 1.3990                 1.2168
 IR Inten    --    25.6812                13.1323                 2.2206
 Raman Activ --     1.3555                 2.2834                 0.9592

                    79                     80                     81
                     A                      A                      A
 Frequencies --  1240.4203              1258.4229              1268.8325
 Red. masses --     1.2176                 1.2937                 1.2058
 Frc consts  --     1.1038                 1.2071                 1.1437
 IR Inten    --     4.8397                24.3006                 2.0892
 Raman Activ --     1.4798                 2.7384                 1.0984

                    82                     83                     84
                     A                      A                      A
 Frequencies --  1277.7268              1285.2457              1293.0575
 Red. masses --     1.1874                 1.2806                 1.2624
 Frc consts  --     1.1421                 1.2464                 1.2436
 IR Inten    --     7.4938                10.0353                19.6613
 Raman Activ --     0.7715                 2.7229                 1.6163

                    85                     86                     87
                     A                      A                      A
 Frequencies --  1300.7906              1304.8655              1313.3086
 Red. masses --     1.3073                 1.4141                 1.2730
 Frc consts  --     1.3033                 1.4186                 1.2937
 IR Inten    --    36.8641                35.5417                 8.6176
 Raman Activ --    12.6995                 1.3022                 1.8533

                    88                     89                     90
                     A                      A                      A
 Frequencies --  1322.1937              1338.9300              1340.8464
 Red. masses --     1.3666                 1.2187                 1.2032
 Frc consts  --     1.4076                 1.2872                 1.2745
 IR Inten    --    16.9871                21.6588                 4.5162
 Raman Activ --     3.9554                 8.5131                 3.5765

                    91                     92                     93
                     A                      A                      A
 Frequencies --  1344.9508              1347.7232              1364.4149
 Red. masses --     1.2352                 1.1487                 1.4382
 Frc consts  --     1.3165                 1.2293                 1.5774
 IR Inten    --    13.8144                34.2170                 6.8914
 Raman Activ --     3.8085                 2.0893                13.1165

                    94                     95                     96
                     A                      A                      A
 Frequencies --  1365.9581              1372.0098              1375.7175
 Red. masses --     1.1399                 1.3584                 1.3434
 Frc consts  --     1.2531                 1.5066                 1.4980
 IR Inten    --     5.3984                52.3462                 0.6239
 Raman Activ --     5.6822                 5.0958                 2.9896

                    97                     98                     99
                     A                      A                      A
 Frequencies --  1389.6810              1392.3729              1413.5357
 Red. masses --     1.5482                 1.3194                 1.3173
 Frc consts  --     1.7616                 1.5071                 1.5508
 IR Inten    --     2.5555                22.5765                 9.5303
 Raman Activ --     5.7107                 3.9906                 2.9957

                   100                    101                    102
                     A                      A                      A
 Frequencies --  1424.0093              1452.5199              1460.9675
 Red. masses --     1.4083                 1.2560                 1.3625
 Frc consts  --     1.6826                 1.5613                 1.7134
 IR Inten    --    17.9312                33.4986                31.1881
 Raman Activ --     1.7974                 0.5588                 4.9360

                   103                    104                    105
                     A                      A                      A
 Frequencies --  1466.7074              1469.2797              1471.9989
 Red. masses --     1.2569                 1.0923                 1.3539
 Frc consts  --     1.5930                 1.3894                 1.7284
 IR Inten    --    26.2622                12.4053                35.6417
 Raman Activ --     1.6892                 4.3486                 1.9940

                   106                    107                    108
                     A                      A                      A
 Frequencies --  1473.6749              1505.4068              3223.0044
 Red. masses --     1.2280                 1.2903                 1.0694
 Frc consts  --     1.5713                 1.7228                 6.5453
 IR Inten    --    18.9158                26.8304              1311.1186
 Raman Activ --     1.2960                 0.9344               163.4237

                   109                    110                    111
                     A                      A                      A
 Frequencies --  3242.3104              3254.9455              3259.9202
 Red. masses --     1.0797                 1.0582                 1.0567
 Frc consts  --     6.6875                 6.6057                 6.6165
 IR Inten    --    45.2942                 8.8808                37.2294
 Raman Activ --    45.8803               192.6873                65.5636

                   112                    113                    114
                     A                      A                      A
 Frequencies --  3268.0200              3268.6704              3276.2097
 Red. masses --     1.0821                 1.0815                 1.0830
 Frc consts  --     6.8088                 6.8079                 6.8489
 IR Inten    --     3.9205                24.3385                 0.8746
 Raman Activ --    67.1260                69.3980               122.6472

                   115                    116                    117
                     A                      A                      A
 Frequencies --  3278.3377              3281.0669              3284.3034
 Red. masses --     1.0840                 1.0846                 1.0863
 Frc consts  --     6.8641                 6.8792                 6.9040
 IR Inten    --     8.8044                 1.4046                 8.1887
 Raman Activ --    41.7433                86.7258                25.9971

                   118                    119                    120
                     A                      A                      A
 Frequencies --  3291.6668              3294.7416              3301.5037
 Red. masses --     1.0870                 1.0870                 1.0879
 Frc consts  --     6.9394                 6.9525                 6.9867
 IR Inten    --    33.7763                23.4139                75.4314
 Raman Activ --    23.3729                23.7608                10.2445

                   121                    122                    123
                     A                      A                      A
 Frequencies --  3312.0280              3317.5323              3333.3960
 Red. masses --     1.1043                 1.1055                 1.0678
 Frc consts  --     7.1371                 7.1686                 6.9905
 IR Inten    --    60.4927                48.2321               338.3590
 Raman Activ --    43.3121                23.7123               166.8993

                   124                    125                    126
                     A                      A                      A
 Frequencies --  3359.9873              3372.1487              3372.6078
 Red. masses --     1.0646                 1.0668                 1.0686
 Frc consts  --     7.0813                 7.1476                 7.1616
 IR Inten    --    37.4095                85.2605                35.5370
 Raman Activ --    93.1951               124.8590               155.6765

                   127                    128                    129
                     A                      A                      A
 Frequencies --  3374.0828              3887.6797              3887.8703
 Red. masses --     1.0656                 1.0676                 1.0675
 Frc consts  --     7.1473                 9.5066                 9.5070
 IR Inten    --    31.1705                97.9088                44.9812
 Raman Activ --   150.4616                54.1880               156.9511

 - Thermochemistry -
 -------------------
 Temperature   298.150 Kelvin.  Pressure   1.00000 Atm.
 Atom     1 has atomic number  8 and mass  15.99491

 Molecular mass:   342.11621 amu.
 Principal axes and moments of inertia in atomic units:
                           1         2         3
     Eigenvalues --  4374.43284********************
           X            0.99997   0.00720  -0.00069
           Y           -0.00720   0.99997   0.00056
           Z            0.00069  -0.00055   1.00000
 This molecule is an asymmetric top.
 Rotational symmetry number  1.
 Warning -- assumption of classical behavior for rotation
           may cause significant error
 Rotational temperatures (Kelvin)      0.01980     0.00690     0.00522
 Rotational constants (GHZ):           0.41257     0.14372     0.10887
    7 imaginary frequencies ignored.
 Zero-point vibrational energy     975403.1 (Joules/Mol)
                                  233.12693 (Kcal/Mol)
 Warning -- explicit consideration of  32 degrees of freedom as
           vibrations may cause significant error
 Vibrational temperatures:     56.92    99.33   123.12   127.72   153.90
          (Kelvin)            224.33   257.46   292.70   295.42   345.72
                              397.26   408.65   428.54   441.72   450.38
                              468.52   477.65   496.72   530.07   538.62
                              587.46   615.54   620.82   638.31   678.72
                              693.37   713.65   756.29   810.89   841.00
                              856.89   879.55   896.19   969.01   995.05
                             1007.66  1062.73  1100.88  1111.42  1154.15
                             1220.90  1245.08  1342.77  1376.97  1404.62
                             1411.90  1421.20  1442.05  1458.33  1466.64
                             1482.35  1518.05  1530.55  1535.61  1541.51
                             1554.36  1574.10  1584.56  1610.24  1617.57
                             1622.90  1638.04  1649.95  1651.79  1661.22
                             1688.15  1691.99  1700.18  1724.94  1762.86
                             1767.17  1784.69  1810.59  1825.56  1838.36
                             1849.18  1860.42  1871.55  1877.41  1889.56
                             1902.34  1926.42  1929.18  1935.08  1939.07
                             1963.09  1965.31  1974.01  1979.35  1999.44
                             2003.31  2033.76  2048.83  2089.85  2102.00
                             2110.26  2113.96  2117.88  2120.29  2165.94
                             4637.18  4664.96  4683.13  4690.29  4701.95
                             4702.88  4713.73  4716.79  4720.72  4725.37
                             4735.97  4740.39  4750.12  4765.26  4773.18
                             4796.01  4834.27  4851.76  4852.42  4854.55
                             5593.50  5593.77

 Zero-point correction=                           0.371511 (Hartree/Particle)
 Thermal correction to Energy=                    0.389763
 Thermal correction to Enthalpy=                  0.390707
 Thermal correction to Gibbs Free Energy=         0.326037
 Sum of electronic and zero-point Energies=          -1297.599462
 Sum of electronic and thermal Energies=             -1297.581211
 Sum of electronic and thermal Enthalpies=           -1297.580267
 Sum of electronic and thermal Free Energies=        -1297.644937

                     E (Thermal)             CV                S
                      KCal/Mol        Cal/Mol-Kelvin    Cal/Mol-Kelvin
 Total                  244.580             75.811            136.110
 Electronic               0.000              0.000              0.000
 Translational            0.889              2.981             43.384
 Rotational               0.889              2.981             35.164
 Vibrational            242.802             69.850             57.561
 Vibration     1          0.594              1.981              5.281
 Vibration     2          0.598              1.969              4.181
 Vibration     3          0.601              1.959              3.759
 Vibration     4          0.602              1.957              3.687
 Vibration     5          0.606              1.944              3.323
 Vibration     6          0.620              1.896              2.599
 Vibration     7          0.629              1.868              2.339
 Vibration     8          0.639              1.835              2.102
 Vibration     9          0.640              1.832              2.085
 Vibration    10          0.657              1.779              1.801
 Vibration    11          0.678              1.718              1.558
 Vibration    12          0.682              1.703              1.509
 Vibration    13          0.691              1.678              1.429
 Vibration    14          0.697              1.660              1.378
 Vibration    15          0.701              1.649              1.346
 Vibration    16          0.710              1.624              1.282
 Vibration    17          0.714              1.612              1.250
 Vibration    18          0.724              1.585              1.188
 Vibration    19          0.741              1.537              1.086
 Vibration    20          0.745              1.525              1.062
 Vibration    21          0.773              1.452              0.933
 Vibration    22          0.789              1.410              0.866
 Vibration    23          0.793              1.402              0.854
 Vibration    24          0.803              1.375              0.815
 Vibration    25          0.829              1.313              0.733
 Vibration    26          0.838              1.290              0.705
 Vibration    27          0.852              1.259              0.668
 Vibration    28          0.881              1.193              0.597
 Vibration    29          0.919              1.110              0.517
 Vibration    30          0.941              1.065              0.477
 Vibration    31          0.953              1.041              0.457
 Vibration    32          0.970              1.008              0.431

 Normal termination of Gaussian 09 at Thu Mar 24 14:59:44 2016.
