 Gaussian 09, Revision B.01,
 Gaussian 09:  EM64L-G09RevB.01 12-Aug-2010

 -------------------------------------------------
 # freq=raman b3lyp/6-31+g(2d,p) geom=connectivity
 -------------------------------------------------

 -----------------
 350 9959/9959.com
 -----------------
 Symbolic Z-matrix:
 Charge =  0 Multiplicity = 1

                         Standard orientation:
 ---------------------------------------------------------------------
 Center     Atomic      Atomic             Coordinates (Angstroms)
 Number     Number       Type             X           Y           Z
 ---------------------------------------------------------------------
      1          8           0       -5.015244   -0.339920    0.426979
      2          6           0       -3.740813   -0.159613   -0.208478
      3          6           0       -3.259194    1.239384    0.138400
      4          8           0       -4.149694    2.163640   -0.502018
      5          1           0       -5.068736    1.808314   -0.327919
      6          6           0       -1.831039    1.634361   -0.200210
      7          8           0       -1.469320    2.967287    0.188303
      8          1           0       -0.501233    3.206883    0.117558
      9          6           0       -3.130342   -2.585832    0.016556
     10          8           0       -4.385403   -3.269062    0.141994
     11          1           0       -4.251433   -4.259556    0.101853
     12          6           0       -2.732347   -1.154414    0.341010
     13          8           0       -1.377137   -0.864408   -0.030832
     14          6           0       -0.938336    0.478277    0.223200
     15          8           0        0.309597    0.562244   -0.479974
     16          6           0        1.477588    0.232110    0.285550
     17          6           0        1.972453   -1.076719   -0.308922
     18          8           0        1.078722   -2.168667   -0.047104
     19          1           0        0.147509   -1.811602   -0.117049
     20          6           0        3.387759   -1.543767   -0.012116
     21          8           0        3.955287   -2.684817   -0.670268
     22          1           0        4.857277   -2.888324   -0.287171
     23          6           0        2.331462    2.613483    0.283425
     24          8           0        1.279119    3.347943   -0.358245
     25          1           0        1.422425    4.336800   -0.320208
     26          6           0        2.633878    1.160804   -0.047806
     27          8           0        3.915713    0.777277    0.472302
     28          6           0        4.402850   -0.419737   -0.151948
     29          8           0        5.584730   -0.739383    0.594918
     30          1           0        6.302490   -0.937248   -0.011109
     31          1           0       -5.693390   -0.454637   -0.242766
     32          1           0       -2.861405   -2.710151   -1.011606
     33          1           0       -2.443608   -3.186158    0.575935
     34          1           0       -2.774853   -1.065626    1.406472
     35          1           0       -3.833759   -0.269451   -1.268759
     36          1           0       -3.377025    1.360354    1.194990
     37          1           0       -1.786782    1.642063   -1.269267
     38          1           0       -0.742766    0.574096    1.270802
     39          1           0        3.234786    3.160536    0.111265
     40          1           0        2.134454    2.652578    1.334405
     41          1           0        2.733248    1.121543   -1.112459
     42          1           0        1.286575    0.162009    1.336026
     43          1           0        1.942331   -0.928854   -1.368228
     44          1           0        3.380434   -1.797103    1.027436
     45          1           0        4.638977   -0.243562   -1.180591
 ---------------------------------------------------------------------

 SCF Done:  E(RB3LYP) =  -1297.94871240     A.U. after   13 cycles

 The electronic state is 1-A.
 Alpha  occ. eigenvalues --  -19.19807 -19.18869 -19.18479 -19.18135 -19.18096
 Alpha  occ. eigenvalues --  -19.17759 -19.16569 -19.15989 -19.14882 -19.14456
 Alpha  occ. eigenvalues --  -19.13174 -10.31205 -10.30411 -10.26403 -10.26150
 Alpha  occ. eigenvalues --  -10.25952 -10.25626 -10.25336 -10.24890 -10.24412
 Alpha  occ. eigenvalues --  -10.24339 -10.24111 -10.23951  -1.10656  -1.09192
 Alpha  occ. eigenvalues --   -1.06082  -1.05341  -1.04567  -1.03542  -1.02867
 Alpha  occ. eigenvalues --   -1.02405  -1.02113  -1.00426  -1.00088  -0.82821
 Alpha  occ. eigenvalues --   -0.80883  -0.79111  -0.78548  -0.72311  -0.70571
 Alpha  occ. eigenvalues --   -0.67715  -0.65324  -0.63269  -0.63118  -0.61254
 Alpha  occ. eigenvalues --   -0.60107  -0.56578  -0.56320  -0.55288  -0.54995
 Alpha  occ. eigenvalues --   -0.54294  -0.53645  -0.53177  -0.52002  -0.51023
 Alpha  occ. eigenvalues --   -0.50669  -0.50504  -0.49998  -0.49583  -0.46925
 Alpha  occ. eigenvalues --   -0.46081  -0.45121  -0.44462  -0.43997  -0.43559
 Alpha  occ. eigenvalues --   -0.42693  -0.41646  -0.41461  -0.40328  -0.39537
 Alpha  occ. eigenvalues --   -0.38490  -0.38131  -0.37355  -0.36738  -0.36139
 Alpha  occ. eigenvalues --   -0.35689  -0.34484  -0.34417  -0.34080  -0.33646
 Alpha  occ. eigenvalues --   -0.32728  -0.31250  -0.30785  -0.30425  -0.30057
 Alpha  occ. eigenvalues --   -0.29541  -0.28549  -0.27660  -0.27596  -0.26808
 Alpha  occ. eigenvalues --   -0.26037
 Alpha virt. eigenvalues --   -0.02328  -0.02260  -0.01880  -0.00574   0.00353
 Alpha virt. eigenvalues --    0.00903   0.01761   0.02316   0.03066   0.03239
 Alpha virt. eigenvalues --    0.03808   0.04367   0.04558   0.05089   0.05722

 Mulliken atomic charges:
              1
     1  O   -0.522981
     2  C   -0.103045
     3  C    0.404929
     4  O   -0.558097
     5  H    0.331583
     6  C   -0.188670
     7  O   -0.581793
     8  H    0.400270
     9  C   -0.346989
    10  O   -0.541361
    11  H    0.347611
    12  C    0.179769
    13  O   -0.259489
    14  C    0.181560
    15  O   -0.159966
    16  C    0.193866
    17  C    0.241800
    18  O   -0.609380
    19  H    0.393736
    20  C    0.197084
    21  O   -0.558131
    22  H    0.339324
    23  C   -0.376455
    24  O   -0.569365
    25  H    0.366300
    26  C    0.047681
    27  O   -0.274540
    28  C    0.061175
    29  O   -0.541776
    30  H    0.336352
    31  H    0.343568
    32  H    0.145505
    33  H    0.142342
    34  H    0.115781
    35  H    0.133353
    36  H    0.126178
    37  H    0.130566
    38  H    0.110352
    39  H    0.145037
    40  H    0.150169
    41  H    0.119750
    42  H    0.123429
    43  H    0.120107
    44  H    0.129796
    45  H    0.133067
 Sum of Mulliken atomic charges =   0.00000

 Dipole moment (field-independent basis, Debye):
    X=              1.9382    Y=              0.2241    Z=             -0.7810  Tot=              2.1016
 Quadrupole moment (field-independent basis, Debye-Ang):
   XX=           -119.2856   YY=           -135.2126   ZZ=           -140.8744
   XY=             17.0104   XZ=             -1.7845   YZ=              0.1821

  Exact polarizability: 235.957  -1.038 199.422   0.295   0.501 143.696
 Approx polarizability: 276.919  -0.802 259.490   0.232  -0.443 238.840

 ******    6 imaginary frequencies (negative Signs) ******

                     1                      2                      3
                     A                      A                      A
 Frequencies --  -392.1155              -306.7949              -216.7384
 Red. masses --     1.6197                 1.7032                 1.2328
 Frc consts  --     0.1467                 0.0945                 0.0341
 IR Inten    --     2.5363                 3.3423               118.7181
 Raman Activ --     0.0413                 0.0471                 0.9691

                     4                      5                      6
                     A                      A                      A
 Frequencies --  -195.4927               -84.1492               -54.1271
 Red. masses --     1.2293                 6.9170                 6.3076
 Frc consts  --     0.0277                 0.0289                 0.0109
 IR Inten    --   118.8056                 1.2216                 0.4408
 Raman Activ --     0.7159                 0.0348                 0.0314

                     7                      8                      9
                     A                      A                      A
 Frequencies --    13.4094                37.0804                50.0986
 Red. masses --     5.8019                 6.7133                 7.1564
 Frc consts  --     0.0006                 0.0054                 0.0106
 IR Inten    --     4.3050                 0.8298                 1.6098
 Raman Activ --     0.0464                 0.0204                 0.0884

                    10                     11                     12
                     A                      A                      A
 Frequencies --    55.9364                79.6100               115.9770
 Red. masses --     7.2354                 6.6623                 5.9470
 Frc consts  --     0.0133                 0.0249                 0.0471
 IR Inten    --     1.0442                 0.8121                 1.3037
 Raman Activ --     0.0193                 0.3959                 0.0761

                    13                     14                     15
                     A                      A                      A
 Frequencies --   145.4580               171.2151               180.7130
 Red. masses --     6.2164                 6.6962                 6.9271
 Frc consts  --     0.0775                 0.1157                 0.1333
 IR Inten    --     3.4423                 3.6631                 2.1970
 Raman Activ --     0.3905                 0.2133                 0.3343

                    16                     17                     18
                     A                      A                      A
 Frequencies --   192.9269               230.6492               243.3126
 Red. masses --     7.2584                 5.9662                 4.4424
 Frc consts  --     0.1592                 0.1870                 0.1550
 IR Inten    --     0.6984                 2.3970                13.3249
 Raman Activ --     2.5169                 0.5735                 0.1251

                    19                     20                     21
                     A                      A                      A
 Frequencies --   276.1967               287.9808               295.4865
 Red. masses --     5.0701                 5.1875                 5.2797
 Frc consts  --     0.2279                 0.2535                 0.2716
 IR Inten    --     2.5640                 3.5092                 4.7479
 Raman Activ --     0.6014                 1.7388                 1.9955

                    22                     23                     24
                     A                      A                      A
 Frequencies --   302.9625               305.6983               315.2960
 Red. masses --     6.6466                 4.4328                 5.6273
 Frc consts  --     0.3594                 0.2441                 0.3296
 IR Inten    --     4.6214                 1.9520                 1.7207
 Raman Activ --     1.0592                 1.5786                 5.2087

                    25                     26                     27
                     A                      A                      A
 Frequencies --   333.0354               352.7921               368.8609
 Red. masses --     5.8618                 4.9219                 6.2131
 Frc consts  --     0.3831                 0.3609                 0.4981
 IR Inten    --    11.7240                 4.9306                 0.7523
 Raman Activ --     1.5019                 0.4566                 0.2778

                    28                     29                     30
                     A                      A                      A
 Frequencies --   394.3822               407.2622               432.3626
 Red. masses --     4.4633                 5.5884                 5.1680
 Frc consts  --     0.4090                 0.5461                 0.5692
 IR Inten    --    13.1677                 8.0633                 2.8567
 Raman Activ --     3.5014                 4.5191                 2.8400

                    31                     32                     33
                     A                      A                      A
 Frequencies --   440.4993               476.1952               482.0367
 Red. masses --     4.8458                 4.3299                 4.5431
 Frc consts  --     0.5540                 0.5785                 0.6220
 IR Inten    --     3.7901                12.2861                 7.2944
 Raman Activ --     1.1428                 0.2314                 4.5004

                    34                     35                     36
                     A                      A                      A
 Frequencies --   504.5469               524.7029               557.5886
 Red. masses --     3.9471                 3.4472                 5.3342
 Frc consts  --     0.5920                 0.5592                 0.9771
 IR Inten    --     8.8787                11.3890                 1.4984
 Raman Activ --     5.7191                 3.3385                 0.4581

                    37                     38                     39
                     A                      A                      A
 Frequencies --   578.5750               590.9760               608.8147
 Red. masses --     3.6814                 4.1948                 4.8182
 Frc consts  --     0.7261                 0.8632                 1.0522
 IR Inten    --    23.0039                 7.3611                18.7890
 Raman Activ --     0.6534                 0.6939                 1.2253

                    40                     41                     42
                     A                      A                      A
 Frequencies --   624.7147               648.9013               673.4344
 Red. masses --     3.8954                 1.0647                 5.6335
 Frc consts  --     0.8957                 0.2641                 1.5053
 IR Inten    --    28.4670               107.8642                21.7358
 Raman Activ --     1.2217                 1.9114                 1.4726

                    43                     44                     45
                     A                      A                      A
 Frequencies --   689.7758               720.0730               747.8549
 Red. masses --     1.0673                 1.0525                 1.0613
 Frc consts  --     0.2992                 0.3215                 0.3497
 IR Inten    --    79.2264                83.3206                91.5266
 Raman Activ --     1.3265                 1.6808                 0.8089

                    46                     47                     48
                     A                      A                      A
 Frequencies --   785.0409               799.6463               837.1522
 Red. masses --     1.0663                 1.0638                 1.8504
 Frc consts  --     0.3872                 0.4008                 0.7641
 IR Inten    --    74.7088                68.5476                 6.2524
 Raman Activ --     1.4088                 0.9923                 1.3475

                    49                     50                     51
                     A                      A                      A
 Frequencies --   859.0828               922.3568               948.7248
 Red. masses --     1.7131                 6.3577                 6.0741
 Frc consts  --     0.7449                 3.1868                 3.2211
 IR Inten    --     1.3046               109.1217                56.6453
 Raman Activ --     0.5216                 1.8071                 1.6320

                    52                     53                     54
                     A                      A                      A
 Frequencies --   967.8672               981.2169               983.9434
 Red. masses --     6.3041                 5.4646                 5.7645
 Frc consts  --     3.4794                 3.0999                 3.2881
 IR Inten    --    36.1462                93.8322               339.3959
 Raman Activ --     2.4901                 2.4357                 0.8312

                    55                     56                     57
                     A                      A                      A
 Frequencies --  1001.9178              1010.3823              1020.6245
 Red. masses --     6.8712                 5.9323                 6.5619
 Frc consts  --     4.0639                 3.5682                 4.0272
 IR Inten    --   203.4092                81.0214               131.1591
 Raman Activ --     2.0400                 1.3962                 2.8111

                    58                     59                     60
                     A                      A                      A
 Frequencies --  1023.7343              1039.0194              1053.0341
 Red. masses --     5.7111                 4.7481                 7.0849
 Frc consts  --     3.5265                 3.0200                 4.6288
 IR Inten    --   285.7803               112.8001               133.1332
 Raman Activ --     3.2147                 1.4237                 0.3110

                    61                     62                     63
                     A                      A                      A
 Frequencies --  1054.6306              1061.4221              1077.8921
 Red. masses --     2.9611                 5.1875                 3.3052
 Frc consts  --     1.9404                 3.4434                 2.2626
 IR Inten    --    17.4526                22.8692                17.5094
 Raman Activ --     5.5367                 2.3069                16.1538

                    64                     65                     66
                     A                      A                      A
 Frequencies --  1094.1638              1104.8664              1115.7687
 Red. masses --     3.6406                 3.7366                 2.4576
 Frc consts  --     2.5679                 2.6875                 1.8026
 IR Inten    --    18.8246                 2.7993                28.4598
 Raman Activ --     8.8900                11.2951                 7.3234

                    67                     68                     69
                     A                      A                      A
 Frequencies --  1120.7383              1130.3664              1133.1239
 Red. masses --     2.7395                 2.5220                 2.6862
 Frc consts  --     2.0273                 1.8986                 2.0321
 IR Inten    --    17.3288                21.7247                24.4091
 Raman Activ --     6.7973                 3.6760                 1.4974

                    70                     71                     72
                     A                      A                      A
 Frequencies --  1148.7828              1153.0436              1168.1185
 Red. masses --     1.7177                 2.6995                 2.1073
 Frc consts  --     1.3356                 2.1146                 1.6941
 IR Inten    --    13.8112                93.5914                 8.1896
 Raman Activ --     2.2534                 6.5613                 3.8162

                    73                     74                     75
                     A                      A                      A
 Frequencies --  1173.2682              1191.1556              1194.0434
 Red. masses --     2.2024                 1.7900                 1.8413
 Frc consts  --     1.7863                 1.4964                 1.5467
 IR Inten    --     1.7895                 2.2251                31.9878
 Raman Activ --     0.8365                 1.2899                 2.3308

                    76                     77                     78
                     A                      A                      A
 Frequencies --  1208.2553              1209.4950              1235.4946
 Red. masses --     1.2936                 1.5852                 1.2993
 Frc consts  --     1.1127                 1.3663                 1.1685
 IR Inten    --    10.8800                10.3607                 2.6169
 Raman Activ --     0.7838                 2.7746                 0.8001

                    79                     80                     81
                     A                      A                      A
 Frequencies --  1240.5365              1259.5837              1278.1093
 Red. masses --     1.2644                 1.2495                 1.1875
 Frc consts  --     1.1464                 1.1680                 1.1429
 IR Inten    --    20.6084                22.9571                17.3842
 Raman Activ --     0.9315                 1.9036                 1.2284

                    82                     83                     84
                     A                      A                      A
 Frequencies --  1286.4314              1289.8027              1300.6557
 Red. masses --     1.1835                 1.2497                 1.2887
 Frc consts  --     1.1539                 1.2249                 1.2845
 IR Inten    --     0.5477                13.2033                31.6201
 Raman Activ --     2.3476                 2.9205                 2.2929

                    85                     86                     87
                     A                      A                      A
 Frequencies --  1304.4799              1322.7868              1326.0983
 Red. masses --     1.3537                 1.2444                 1.2369
 Frc consts  --     1.3573                 1.2829                 1.2815
 IR Inten    --    27.7652                18.3203                 5.2963
 Raman Activ --     1.4399                 2.5163                 6.5110

                    88                     89                     90
                     A                      A                      A
 Frequencies --  1327.8593              1333.5892              1339.8876
 Red. masses --     1.3594                 1.1520                 1.2618
 Frc consts  --     1.4122                 1.2071                 1.3347
 IR Inten    --    32.6382                15.5793                18.3560
 Raman Activ --     3.3887                 7.2264                 2.9602

                    91                     92                     93
                     A                      A                      A
 Frequencies --  1345.7735              1349.0319              1359.3267
 Red. masses --     1.2405                 1.1862                 1.2420
 Frc consts  --     1.3237                 1.2719                 1.3521
 IR Inten    --    22.4621                26.9676                27.3482
 Raman Activ --     8.7900                 8.9111                 2.3274

                    94                     95                     96
                     A                      A                      A
 Frequencies --  1361.8257              1371.0088              1377.6089
 Red. masses --     1.3069                 1.3527                 1.1575
 Frc consts  --     1.4280                 1.4981                 1.2943
 IR Inten    --    18.3240                18.8396                 6.7659
 Raman Activ --     5.6820                 3.5157                 6.2626

                    97                     98                     99
                     A                      A                      A
 Frequencies --  1379.9196              1402.4238              1409.3186
 Red. masses --     1.2766                 1.4416                 1.5068
 Frc consts  --     1.4323                 1.6705                 1.7633
 IR Inten    --     0.6535                 4.8602                16.8308
 Raman Activ --     4.7045                 3.8945                 2.9989

                   100                    101                    102
                     A                      A                      A
 Frequencies --  1414.6970              1431.0524              1457.4689
 Red. masses --     1.5070                 1.4336                 1.3542
 Frc consts  --     1.7771                 1.7297                 1.6949
 IR Inten    --     2.7518                23.6547                12.3475
 Raman Activ --     3.7522                 1.2178                 0.7884

                   103                    104                    105
                     A                      A                      A
 Frequencies --  1463.2315              1465.2912              1473.7341
 Red. masses --     1.1764                 1.3391                 1.0899
 Frc consts  --     1.4840                 1.6940                 1.3946
 IR Inten    --    35.6863                53.5659                 6.4299
 Raman Activ --     4.0024                 3.8498                 4.0474

                   106                    107                    108
                     A                      A                      A
 Frequencies --  1480.3001              1518.8005              3247.9882
 Red. masses --     1.2479                 1.2635                 1.0592
 Frc consts  --     1.6111                 1.7172                 6.5833
 IR Inten    --     3.9462                45.0181                31.4604
 Raman Activ --     0.7059                 1.5958                88.9131

                   109                    110                    111
                     A                      A                      A
 Frequencies --  3251.5801              3256.4393              3260.4479
 Red. masses --     1.0712                 1.0705                 1.0817
 Frc consts  --     6.6728                 6.6882                 6.7753
 IR Inten    --    24.0234               113.4916                15.2198
 Raman Activ --    10.7000                71.7742                18.7009

                   112                    113                    114
                     A                      A                      A
 Frequencies --  3264.8764              3266.8042              3271.3637
 Red. masses --     1.0789                 1.0796                 1.0828
 Frc consts  --     6.7756                 6.7882                 6.8273
 IR Inten    --    47.7029                24.4325                 7.8781
 Raman Activ --   275.5648               154.1108                 9.8283

                   115                    116                    117
                     A                      A                      A
 Frequencies --  3275.3221              3281.4761              3287.6109
 Red. masses --     1.0830                 1.0779                 1.0794
 Frc consts  --     6.8454                 6.8389                 6.8736
 IR Inten    --     8.0880               183.1861               192.9655
 Raman Activ --    25.5248               120.7035               161.7505

                   118                    119                    120
                     A                      A                      A
 Frequencies --  3291.5743              3292.2505              3301.7118
 Red. masses --     1.0869                 1.0971                 1.0899
 Frc consts  --     6.9380                 7.0063                 7.0000
 IR Inten    --    53.3698                 3.6193                50.1410
 Raman Activ --    61.7771                32.7331                13.3754

                   121                    122                    123
                     A                      A                      A
 Frequencies --  3302.2468              3306.9882              3310.1659
 Red. masses --     1.0848                 1.0743                 1.1000
 Frc consts  --     6.9696                 6.9222                 7.1016
 IR Inten    --   196.7936               688.3730                69.6717
 Raman Activ --    15.1614               132.4191                38.7703

                   124                    125                    126
                     A                      A                      A
 Frequencies --  3353.7342              3356.4048              3363.9872
 Red. masses --     1.0646                 1.0660                 1.0681
 Frc consts  --     7.0549                 7.0757                 7.1217
 IR Inten    --    25.0270                47.3689                71.1236
 Raman Activ --    99.2222               125.9482               157.9403

                   127                    128                    129
                     A                      A                      A
 Frequencies --  3371.8428              3888.8837              3891.4066
 Red. masses --     1.0677                 1.0676                 1.0673
 Frc consts  --     7.1524                 9.5129                 9.5228
 IR Inten    --    71.0896                80.3807                69.9197
 Raman Activ --   144.3540                89.4448               118.0530

 - Thermochemistry -
 -------------------
 Temperature   298.150 Kelvin.  Pressure   1.00000 Atm.
 Atom     1 has atomic number  8 and mass  15.99491

 Molecular mass:   342.11621 amu.
 Principal axes and moments of inertia in atomic units:
                           1         2         3
     Eigenvalues --  4473.81390********************
           X            0.99997   0.00760  -0.00069
           Y           -0.00760   0.99997   0.00148
           Z            0.00070  -0.00147   1.00000
 This molecule is an asymmetric top.
 Rotational symmetry number  1.
 Warning -- assumption of classical behavior for rotation
           may cause significant error
 Rotational temperatures (Kelvin)      0.01936     0.00684     0.00517
 Rotational constants (GHZ):           0.40340     0.14243     0.10777
    6 imaginary frequencies ignored.
 Zero-point vibrational energy     972752.4 (Joules/Mol)
                                  232.49341 (Kcal/Mol)
 Warning -- explicit consideration of  33 degrees of freedom as
           vibrations may cause significant error
 Vibrational temperatures:     19.29    53.35    72.08    80.48   114.54
          (Kelvin)            166.86   209.28   246.34   260.01   277.58
                              331.85   350.07   397.38   414.34   425.14
                              435.89   439.83   453.64   479.16   507.59
                              530.71   567.43   585.96   622.07   633.78
                              685.14   693.54   725.93   754.93   802.24
                              832.44   850.28   875.95   898.82   933.62
                              968.92   992.43  1036.02  1076.00  1129.50
                             1150.51  1204.47  1236.03  1327.06  1365.00
                             1392.54  1411.75  1415.67  1441.53  1453.71
                             1468.45  1472.92  1494.92  1515.08  1517.38
                             1527.15  1550.84  1574.26  1589.65  1605.34
                             1612.49  1626.34  1630.31  1652.84  1658.97
                             1680.66  1688.07  1713.81  1717.96  1738.41
                             1740.19  1777.60  1784.85  1812.26  1838.91
                             1850.89  1855.74  1871.35  1876.85  1903.19
                             1907.96  1910.49  1918.73  1927.80  1936.27
                             1940.95  1955.77  1959.36  1972.57  1982.07
                             1985.39  2017.77  2027.69  2035.43  2058.96
                             2096.97  2105.26  2108.22  2120.37  2129.82
                             2185.21  4673.12  4678.29  4685.28  4691.05
                             4697.42  4700.20  4706.76  4712.45  4721.31
                             4730.13  4735.84  4736.81  4750.42  4751.19
                             4758.01  4762.58  4825.27  4829.11  4840.02
                             4851.32  5595.23  5598.86

 Zero-point correction=                           0.370502 (Hartree/Particle)
 Thermal correction to Energy=                    0.390127
 Thermal correction to Enthalpy=                  0.391072
 Thermal correction to Gibbs Free Energy=         0.321278
 Sum of electronic and zero-point Energies=          -1297.578211
 Sum of electronic and thermal Energies=             -1297.558585
 Sum of electronic and thermal Enthalpies=           -1297.557641
 Sum of electronic and thermal Free Energies=        -1297.627434

                     E (Thermal)             CV                S
                      KCal/Mol        Cal/Mol-Kelvin    Cal/Mol-Kelvin
 Total                  244.809             78.492            146.892
 Electronic               0.000              0.000              0.000
 Translational            0.889              2.981             43.384
 Rotational               0.889              2.981             35.206
 Vibrational            243.031             72.531             68.302
 Vibration     1          0.593              1.987              7.428
 Vibration     2          0.594              1.982              5.409
 Vibration     3          0.595              1.978              4.813
 Vibration     4          0.596              1.975              4.596
 Vibration     5          0.600              1.963              3.900
 Vibration     6          0.608              1.936              3.166
 Vibration     7          0.617              1.908              2.731
 Vibration     8          0.626              1.878              2.422
 Vibration     9          0.630              1.866              2.321
 Vibration    10          0.635              1.850              2.200
 Vibration    11          0.652              1.794              1.874
 Vibration    12          0.659              1.774              1.779
 Vibration    13          0.678              1.717              1.557
 Vibration    14          0.685              1.696              1.486
 Vibration    15          0.690              1.682              1.442
 Vibration    16          0.694              1.668              1.400
 Vibration    17          0.696              1.663              1.386
 Vibration    18          0.703              1.644              1.334
 Vibration    19          0.715              1.610              1.245
 Vibration    20          0.729              1.570              1.154
 Vibration    21          0.741              1.536              1.085
 Vibration    22          0.761              1.482              0.984
 Vibration    23          0.772              1.454              0.936
 Vibration    24          0.793              1.400              0.851
 Vibration    25          0.800              1.382              0.825
 Vibration    26          0.833              1.303              0.720
 Vibration    27          0.838              1.290              0.705
 Vibration    28          0.860              1.240              0.647
 Vibration    29          0.880              1.195              0.599
 Vibration    30          0.913              1.123              0.529
 Vibration    31          0.935              1.078              0.488
 Vibration    32          0.948              1.051              0.465
 Vibration    33          0.968              1.013              0.435

 Normal termination of Gaussian 09 at Fri Mar 25 22:41:44 2016.
