 Gaussian 09, Revision B.01,
 Gaussian 09:  EM64L-G09RevB.01 12-Aug-2010

 -------------------------------------------------
 # freq=raman b3lyp/6-31+g(2d,p) geom=connectivity
 -------------------------------------------------

 -----------------
 300 7545/7545.com
 -----------------
 Symbolic Z-matrix:
 Charge =  0 Multiplicity = 1

                         Standard orientation:
 ---------------------------------------------------------------------
 Center     Atomic      Atomic             Coordinates (Angstroms)
 Number     Number       Type             X           Y           Z
 ---------------------------------------------------------------------
      1          8           0       -5.046501   -0.350297    0.382342
      2          6           0       -3.750100   -0.047978   -0.152163
      3          6           0       -3.241870    1.295904    0.345233
      4          8           0       -4.086606    2.349309   -0.138896
      5          1           0       -5.033401    2.027996   -0.157902
      6          6           0       -1.788863    1.580126   -0.001472
      7          8           0       -1.194607    2.729921    0.618300
      8          1           0       -0.344595    2.996568    0.164779
      9          6           0       -3.045957   -2.507367   -0.122445
     10          8           0       -4.239797   -3.212737    0.243297
     11          1           0       -4.188150   -4.183268    0.006360
     12          6           0       -2.764158   -1.090091    0.350860
     13          8           0       -1.518556   -0.847515   -0.319564
     14          6           0       -0.897439    0.358933    0.149433
     15          8           0        0.238972    0.558687   -0.701678
     16          6           0        1.532139    0.221708   -0.179777
     17          6           0        1.963937   -1.190161   -0.539611
     18          8           0        0.966992   -2.203455   -0.345011
     19          1           0        0.045206   -1.843805   -0.489221
     20          6           0        3.227951   -1.639533    0.174402
     21          8           0        3.976397   -2.771228   -0.291231
     22          1           0        4.790195   -2.759257    0.290352
     23          6           0        2.466177    2.625298   -0.054995
     24          8           0        1.309750    3.385414   -0.435858
     25          1           0        1.485482    4.330611   -0.162055
     26          6           0        2.664202    1.185619   -0.498962
     27          8           0        3.809904    0.838043    0.291424
     28          6           0        4.253252   -0.517945    0.132699
     29          8           0        5.331804   -0.630321    1.071697
     30          1           0        6.161829   -0.715605    0.596949
     31          1           0       -5.658437   -0.518215   -0.338032
     32          1           0        3.320266    3.172724   -0.395224
     33          1           0        2.495626    2.624537    1.014599
     34          1           0        2.906393    1.146712   -1.540465
     35          1           0        1.427549    0.236021    0.885003
     36          1           0        2.189481   -1.180098   -1.585521
     37          1           0        2.974505   -1.816875    1.198714
     38          1           0        4.697616   -0.571107   -0.839214
     39          1           0       -2.222678   -3.108662    0.202449
     40          1           0       -3.018432   -2.484808   -1.191853
     41          1           0       -2.649048   -1.045933    1.413734
     42          1           0       -3.781131   -0.057030   -1.221675
     43          1           0       -3.318515    1.289583    1.412465
     44          1           0       -1.791957    1.798975   -1.048848
     45          1           0       -0.585445    0.247284    1.166829
 ---------------------------------------------------------------------

 SCF Done:  E(RB3LYP) =  -1297.98436036     A.U. after   14 cycles

 The electronic state is 1-A.
 Alpha  occ. eigenvalues --  -19.18827 -19.18761 -19.18433 -19.18284 -19.18026
 Alpha  occ. eigenvalues --  -19.17085 -19.16668 -19.15810 -19.15091 -19.14236
 Alpha  occ. eigenvalues --  -19.13798 -10.30573 -10.30397 -10.26709 -10.26070
 Alpha  occ. eigenvalues --  -10.25874 -10.25382 -10.25304 -10.25209 -10.24942
 Alpha  occ. eigenvalues --  -10.24379 -10.24275 -10.23982  -1.10257  -1.09434
 Alpha  occ. eigenvalues --   -1.05631  -1.05306  -1.04372  -1.04116  -1.03053
 Alpha  occ. eigenvalues --   -1.02207  -1.01916  -1.00962  -1.00172  -0.82450
 Alpha  occ. eigenvalues --   -0.80433  -0.79762  -0.78552  -0.72013  -0.70095
 Alpha  occ. eigenvalues --   -0.67597  -0.65283  -0.63442  -0.62673  -0.61500
 Alpha  occ. eigenvalues --   -0.60374  -0.56655  -0.55875  -0.55389  -0.54928
 Alpha  occ. eigenvalues --   -0.54219  -0.53428  -0.52856  -0.51951  -0.51513
 Alpha  occ. eigenvalues --   -0.51261  -0.49902  -0.49540  -0.49298  -0.46572
 Alpha  occ. eigenvalues --   -0.46079  -0.45090  -0.44477  -0.44180  -0.43530
 Alpha  occ. eigenvalues --   -0.42806  -0.42079  -0.41745  -0.40376  -0.39577
 Alpha  occ. eigenvalues --   -0.39238  -0.38125  -0.37416  -0.36174  -0.35520
 Alpha  occ. eigenvalues --   -0.35423  -0.35077  -0.34257  -0.33964  -0.33576
 Alpha  occ. eigenvalues --   -0.33441  -0.31753  -0.31301  -0.30359  -0.30175
 Alpha  occ. eigenvalues --   -0.29434  -0.28660  -0.28443  -0.27618  -0.26906
 Alpha  occ. eigenvalues --   -0.26504
 Alpha virt. eigenvalues --   -0.02144  -0.01994  -0.01938  -0.00321   0.00405
 Alpha virt. eigenvalues --    0.01216   0.01875   0.02425   0.03230   0.03376
 Alpha virt. eigenvalues --    0.03704   0.04303   0.04570   0.05157   0.05846

 Mulliken atomic charges:
              1
     1  O   -0.529631
     2  C   -0.051861
     3  C    0.343686
     4  O   -0.563949
     5  H    0.335792
     6  C   -0.228167
     7  O   -0.586700
     8  H    0.413107
     9  C   -0.201760
    10  O   -0.554803
    11  H    0.338938
    12  C    0.179605
    13  O   -0.260224
    14  C    0.311995
    15  O   -0.239682
    16  C    0.071962
    17  C    0.196877
    18  O   -0.571437
    19  H    0.387699
    20  C    0.093593
    21  O   -0.526924
    22  H    0.340932
    23  C   -0.253286
    24  O   -0.568781
    25  H    0.354825
    26  C   -0.025977
    27  O   -0.214013
    28  C    0.043410
    29  O   -0.540364
    30  H    0.339879
    31  H    0.339439
    32  H    0.146910
    33  H    0.160130
    34  H    0.122023
    35  H    0.107380
    36  H    0.112331
    37  H    0.132108
    38  H    0.121748
    39  H    0.147410
    40  H    0.140621
    41  H    0.121059
    42  H    0.128648
    43  H    0.124164
    44  H    0.135200
    45  H    0.126086
 Sum of Mulliken atomic charges =   0.00000

 Dipole moment (field-independent basis, Debye):
    X=              2.3936    Y=              0.2656    Z=             -1.7734  Tot=              2.9908
 Quadrupole moment (field-independent basis, Debye-Ang):
   XX=           -115.6708   YY=           -138.5370   ZZ=           -141.4849
   XY=             17.2271   XZ=              6.0124   YZ=             -1.6039

  Exact polarizability: 233.534  -0.136 198.052   1.898   0.235 143.955
 Approx polarizability: 274.982   1.288 257.588   2.153   0.265 239.294

 ******    6 imaginary frequencies (negative Signs) ******

                     1                      2                      3
                     A                      A                      A
 Frequencies --  -287.3600              -275.6835              -245.3001
 Red. masses --     1.6861                 1.7614                 1.2117
 Frc consts  --     0.0820                 0.0789                 0.0430
 IR Inten    --    21.2371                 3.3716                86.9777
 Raman Activ --     0.0997                 0.0525                 0.8225

                     4                      5                      6
                     A                      A                      A
 Frequencies --  -115.6430               -59.0461               -47.2967
 Red. masses --     1.6141                 4.5095                 5.8602
 Frc consts  --     0.0127                 0.0093                 0.0077
 IR Inten    --    76.1348                11.8076                 1.9058
 Raman Activ --     0.5451                 0.1515                 0.0243

                     7                      8                      9
                     A                      A                      A
 Frequencies --    23.9638                50.3490                64.3293
 Red. masses --     5.6767                 6.7494                 6.1848
 Frc consts  --     0.0019                 0.0101                 0.0151
 IR Inten    --     6.0496                 0.8741                 4.7604
 Raman Activ --     0.1207                 0.0502                 0.0883

                    10                     11                     12
                     A                      A                      A
 Frequencies --    75.9327                83.9298               101.8065
 Red. masses --     6.5210                 5.9652                 6.3467
 Frc consts  --     0.0222                 0.0248                 0.0388
 IR Inten    --     3.8731                 3.7071                 2.5737
 Raman Activ --     0.1811                 0.0743                 0.2338

                    13                     14                     15
                     A                      A                      A
 Frequencies --   157.2005               172.0566               181.8549
 Red. masses --     6.6597                 6.2369                 7.4440
 Frc consts  --     0.0970                 0.1088                 0.1450
 IR Inten    --     3.7459                 1.3088                 0.1106
 Raman Activ --     0.5367                 0.6135                 0.4477

                    16                     17                     18
                     A                      A                      A
 Frequencies --   202.5637               230.9794               269.5019
 Red. masses --     6.2515                 6.3689                 4.6453
 Frc consts  --     0.1511                 0.2002                 0.1988
 IR Inten    --     0.5106                 2.6312                 6.5659
 Raman Activ --     1.3040                 1.3444                 0.3769

                    19                     20                     21
                     A                      A                      A
 Frequencies --   278.6828               287.6078               297.3934
 Red. masses --     4.8261                 4.3169                 4.8191
 Frc consts  --     0.2208                 0.2104                 0.2511
 IR Inten    --     9.7543                 0.4183                 1.5883
 Raman Activ --     0.3695                 0.1582                 0.1241

                    22                     23                     24
                     A                      A                      A
 Frequencies --   308.6862               325.7532               332.5424
 Red. masses --     6.3116                 5.0702                 6.1053
 Frc consts  --     0.3543                 0.3170                 0.3978
 IR Inten    --     9.8793                 2.0269                 2.5007
 Raman Activ --     1.0350                 2.1966                 3.9023

                    25                     26                     27
                     A                      A                      A
 Frequencies --   346.0694               362.0510               376.1766
 Red. masses --     6.2798                 4.5562                 7.6425
 Frc consts  --     0.4431                 0.3519                 0.6372
 IR Inten    --    12.4048                 7.4128                 1.9283
 Raman Activ --     4.2535                 1.8928                 1.9044

                    28                     29                     30
                     A                      A                      A
 Frequencies --   402.8428               411.4576               430.2688
 Red. masses --     4.9092                 5.6675                 4.3822
 Frc consts  --     0.4694                 0.5653                 0.4780
 IR Inten    --    12.1607                 6.6983                13.7925
 Raman Activ --     2.4534                 2.5933                 3.4463

                    31                     32                     33
                     A                      A                      A
 Frequencies --   435.2320               480.2091               486.3619
 Red. masses --     4.7204                 4.1643                 3.9218
 Frc consts  --     0.5268                 0.5658                 0.5466
 IR Inten    --     1.6524                 4.9368                18.3635
 Raman Activ --     1.9169                 2.1359                 0.5555

                    34                     35                     36
                     A                      A                      A
 Frequencies --   502.8215               527.2799               557.1886
 Red. masses --     4.2514                 3.1913                 3.2306
 Frc consts  --     0.6333                 0.5228                 0.5909
 IR Inten    --     3.1227                12.6294                 4.6167
 Raman Activ --     5.2531                 3.3135                 1.9630

                    37                     38                     39
                     A                      A                      A
 Frequencies --   573.3231               600.2784               618.7037
 Red. masses --     3.0411                 6.8654                 6.3882
 Frc consts  --     0.5889                 1.4575                 1.4408
 IR Inten    --    34.5354                13.9094                 1.9063
 Raman Activ --     0.5132                 0.5996                 0.6610

                    40                     41                     42
                     A                      A                      A
 Frequencies --   627.3292               673.4749               681.8640
 Red. masses --     4.2865                 1.1077                 4.4802
 Frc consts  --     0.9939                 0.2960                 1.2273
 IR Inten    --    42.1552               114.4892                 8.6508
 Raman Activ --     1.1859                 1.7688                 1.0630

                    43                     44                     45
                     A                      A                      A
 Frequencies --   725.2674               740.0603               766.2652
 Red. masses --     1.0603                 1.0898                 1.0779
 Frc consts  --     0.3286                 0.3517                 0.3729
 IR Inten    --    81.7419               105.9297               119.5262
 Raman Activ --     1.5415                 1.6703                 1.2508

                    46                     47                     48
                     A                      A                      A
 Frequencies --   772.1473               820.1542               848.7487
 Red. masses --     1.0666                 1.0834                 1.7534
 Frc consts  --     0.3747                 0.4294                 0.7442
 IR Inten    --    80.7224                76.3503                 3.5314
 Raman Activ --     1.9883                 0.8632                 1.0029

                    49                     50                     51
                     A                      A                      A
 Frequencies --   867.1700               930.9451               954.1517
 Red. masses --     1.7191                 5.9420                 5.5128
 Frc consts  --     0.7617                 3.0341                 2.9570
 IR Inten    --     5.0131                88.4874                18.8752
 Raman Activ --     0.5125                 3.0486                 0.7896

                    52                     53                     54
                     A                      A                      A
 Frequencies --   964.4576               973.6132               984.3900
 Red. masses --     6.3051                 7.2994                 4.2557
 Frc consts  --     3.4555                 4.0767                 2.4297
 IR Inten    --    21.8468                88.1218               121.1390
 Raman Activ --     2.9142                 1.8883                 0.4937

                    55                     56                     57
                     A                      A                      A
 Frequencies --   993.4956              1014.4346              1021.4735
 Red. masses --     6.0024                 5.9797                 5.5354
 Frc consts  --     3.4907                 3.6256                 3.4030
 IR Inten    --   503.1978                24.6585               153.8548
 Raman Activ --     1.4360                 1.2201                 3.8315

                    58                     59                     60
                     A                      A                      A
 Frequencies --  1035.7639              1050.5807              1062.7561
 Red. masses --     5.8994                 4.7328                 6.6781
 Frc consts  --     3.7289                 3.0777                 4.4440
 IR Inten    --   256.2877                81.4318                76.6971
 Raman Activ --     2.1997                10.2556                 1.1067

                    61                     62                     63
                     A                      A                      A
 Frequencies --  1068.5106              1068.8180              1082.4485
 Red. masses --     3.6759                 5.9022                 3.7193
 Frc consts  --     2.4727                 3.9726                 2.5676
 IR Inten    --    12.1574                32.1888                10.4406
 Raman Activ --     2.2318                 0.3309                22.2473

                    64                     65                     66
                     A                      A                      A
 Frequencies --  1095.0024              1109.6547              1118.9693
 Red. masses --     3.6761                 2.6966                 2.8296
 Frc consts  --     2.5969                 1.9563                 2.0875
 IR Inten    --    96.7840                 7.3237                47.2700
 Raman Activ --    19.1694                 5.1646                 3.3668

                    67                     68                     69
                     A                      A                      A
 Frequencies --  1119.7854              1126.6315              1138.2416
 Red. masses --     2.3110                 3.5012                 1.8655
 Frc consts  --     1.7073                 2.6184                 1.4240
 IR Inten    --   103.8116                41.9588                40.5246
 Raman Activ --     2.8353                 3.6927                 2.3626

                    70                     71                     72
                     A                      A                      A
 Frequencies --  1145.9485              1156.0389              1162.0131
 Red. masses --     3.7240                 2.3374                 2.1752
 Frc consts  --     2.8813                 1.8404                 1.7305
 IR Inten    --     6.0223                49.5339                39.4185
 Raman Activ --     4.6752                 5.3473                 3.3177

                    73                     74                     75
                     A                      A                      A
 Frequencies --  1172.2798              1184.8158              1187.5988
 Red. masses --     1.5938                 1.6144                 2.0343
 Frc consts  --     1.2905                 1.3352                 1.6904
 IR Inten    --     4.3141                 1.7993                11.6869
 Raman Activ --     2.1991                 1.5735                 1.6911

                    76                     77                     78
                     A                      A                      A
 Frequencies --  1205.7167              1225.2411              1236.9881
 Red. masses --     1.2859                 1.4237                 1.3521
 Frc consts  --     1.1014                 1.2592                 1.2190
 IR Inten    --    13.8388                 5.9310                 2.3777
 Raman Activ --     2.1227                 2.1771                 1.0541

                    79                     80                     81
                     A                      A                      A
 Frequencies --  1245.2668              1255.0887              1273.7483
 Red. masses --     1.2105                 1.3278                 1.3323
 Frc consts  --     1.1060                 1.2323                 1.2736
 IR Inten    --     3.6117                 2.2178                14.0421
 Raman Activ --     2.6840                 3.0680                 1.4387

                    82                     83                     84
                     A                      A                      A
 Frequencies --  1277.2291              1287.2663              1293.5029
 Red. masses --     1.2320                 1.3311                 1.3034
 Frc consts  --     1.1841                 1.2995                 1.2848
 IR Inten    --     7.2250                65.3313                24.6804
 Raman Activ --     1.8748                 1.6525                 2.4765

                    85                     86                     87
                     A                      A                      A
 Frequencies --  1300.4015              1308.1450              1310.5098
 Red. masses --     1.2111                 1.2299                 1.2127
 Frc consts  --     1.2066                 1.2400                 1.2271
 IR Inten    --     2.6143                26.4811                15.2612
 Raman Activ --     5.2399                 1.4776                 6.0952

                    88                     89                     90
                     A                      A                      A
 Frequencies --  1321.2121              1328.2642              1336.7924
 Red. masses --     1.1752                 1.1375                 1.2551
 Frc consts  --     1.2086                 1.1824                 1.3215
 IR Inten    --    16.0223                37.8681                 4.8148
 Raman Activ --     4.3588                 5.3165                 6.7741

                    91                     92                     93
                     A                      A                      A
 Frequencies --  1343.0752              1345.6277              1353.1804
 Red. masses --     1.2683                 1.1590                 1.1543
 Frc consts  --     1.3480                 1.2364                 1.2453
 IR Inten    --    48.0871                 2.2171                27.7493
 Raman Activ --     3.2390                 8.4849                 1.9325

                    94                     95                     96
                     A                      A                      A
 Frequencies --  1356.3737              1367.8240              1376.5565
 Red. masses --     1.2078                 1.5614                 1.5485
 Frc consts  --     1.3092                 1.7212                 1.7289
 IR Inten    --    29.7572                10.0113                10.8311
 Raman Activ --     2.2568                 6.4760                 5.2993

                    97                     98                     99
                     A                      A                      A
 Frequencies --  1390.3935              1407.1935              1410.5813
 Red. masses --     1.5682                 1.3278                 1.3236
 Frc consts  --     1.7862                 1.5492                 1.5517
 IR Inten    --     5.3276                 3.0846                 3.7300
 Raman Activ --     3.3919                 7.8352                 5.8288

                   100                    101                    102
                     A                      A                      A
 Frequencies --  1427.3831              1455.0195              1464.7758
 Red. masses --     1.4233                 1.3450                 1.3513
 Frc consts  --     1.7085                 1.6777                 1.7082
 IR Inten    --    53.2982                21.3480                35.2858
 Raman Activ --     1.1409                 2.7560                 0.9155

                   103                    104                    105
                     A                      A                      A
 Frequencies --  1469.0190              1474.2783              1475.4593
 Red. masses --     1.2660                 1.1074                 1.0872
 Frc consts  --     1.6097                 1.4182                 1.3945
 IR Inten    --    14.4858                 3.7455                 1.5196
 Raman Activ --     1.8524                 2.7752                 3.8472

                   106                    107                    108
                     A                      A                      A
 Frequencies --  1484.1411              1496.9530              3256.0781
 Red. masses --     1.3845                 1.3130                 1.0580
 Frc consts  --     1.7968                 1.7335                 6.6091
 IR Inten    --    58.7222                22.4274                29.0394
 Raman Activ --     2.4757                 1.0244                94.9771

                   109                    110                    111
                     A                      A                      A
 Frequencies --  3257.7417              3260.1766              3263.7204
 Red. masses --     1.0752                 1.0661                 1.0826
 Frc consts  --     6.7232                 6.6765                 6.7941
 IR Inten    --    34.0690               267.5547                39.9972
 Raman Activ --    25.4845                22.5508               138.2663

                   112                    113                    114
                     A                      A                      A
 Frequencies --  3267.1533              3269.0892              3275.2252
 Red. masses --     1.0783                 1.0816                 1.0713
 Frc consts  --     6.7813                 6.8101                 6.7706
 IR Inten    --    27.5602                 6.4728               329.8978
 Raman Activ --   151.0472               129.5149               190.7908

                   115                    116                    117
                     A                      A                      A
 Frequencies --  3279.1651              3282.7199              3287.0909
 Red. masses --     1.0826                 1.0855                 1.0857
 Frc consts  --     6.8588                 6.8919                 6.9116
 IR Inten    --    22.2257                 4.1070                31.5293
 Raman Activ --    18.6952                68.5973               106.2589

                   118                    119                    120
                     A                      A                      A
 Frequencies --  3290.4853              3292.8517              3300.0813
 Red. masses --     1.0857                 1.0855                 1.0909
 Frc consts  --     6.9261                 6.9345                 6.9996
 IR Inten    --     3.8364               164.0698                76.6233
 Raman Activ --    28.5411                 7.5681                23.3088

                   121                    122                    123
                     A                      A                      A
 Frequencies --  3306.2136              3312.3739              3316.2012
 Red. masses --     1.0758                 1.0951                 1.1054
 Frc consts  --     6.9287                 7.0794                 7.1624
 IR Inten    --   504.1206               148.4283                47.8399
 Raman Activ --    90.5269                57.9161                45.5463

                   124                    125                    126
                     A                      A                      A
 Frequencies --  3356.9563              3362.3678              3364.2713
 Red. masses --     1.0652                 1.0677                 1.0659
 Frc consts  --     7.0725                 7.1119                 7.1078
 IR Inten    --    48.6281                47.6858                35.4160
 Raman Activ --    90.0351               164.1917               124.9072

                   127                    128                    129
                     A                      A                      A
 Frequencies --  3376.4787              3888.6381              3889.9443
 Red. masses --     1.0664                 1.0677                 1.0676
 Frc consts  --     7.1628                 9.5121                 9.5184
 IR Inten    --    62.1207                90.3522                69.1423
 Raman Activ --   128.9011                96.8370                97.5414

 - Thermochemistry -
 -------------------
 Temperature   298.150 Kelvin.  Pressure   1.00000 Atm.
 Atom     1 has atomic number  8 and mass  15.99491

 Molecular mass:   342.11621 amu.
 Principal axes and moments of inertia in atomic units:
                           1         2         3
     Eigenvalues --  4532.78107********************
           X            0.99997   0.00805   0.00064
           Y           -0.00805   0.99997   0.00042
           Z           -0.00064  -0.00043   1.00000
 This molecule is an asymmetric top.
 Rotational symmetry number  1.
 Warning -- assumption of classical behavior for rotation
           may cause significant error
 Rotational temperatures (Kelvin)      0.01911     0.00702     0.00530
 Rotational constants (GHZ):           0.39815     0.14628     0.11052
    6 imaginary frequencies ignored.
 Zero-point vibrational energy     975309.0 (Joules/Mol)
                                  233.10444 (Kcal/Mol)
 Warning -- explicit consideration of  33 degrees of freedom as
           vibrations may cause significant error
 Vibrational temperatures:     34.48    72.44    92.56   109.25   120.76
          (Kelvin)            146.48   226.18   247.55   261.65   291.44
                              332.33   387.75   400.96   413.80   427.88
                              444.13   468.69   478.45   497.92   520.91
                              541.23   579.60   591.99   619.06   626.20
                              690.91   699.77   723.45   758.64   801.67
                              824.88   863.67   890.18   902.59   968.98
                              981.05  1043.50  1064.78  1102.48  1110.95
                             1180.02  1221.16  1247.66  1339.42  1372.81
                             1387.64  1400.81  1416.32  1429.42  1459.54
                             1469.67  1490.23  1511.55  1529.07  1537.35
                             1537.79  1557.40  1575.46  1596.54  1609.95
                             1611.12  1620.97  1637.67  1648.76  1663.28
                             1671.88  1686.65  1704.68  1708.69  1734.76
                             1762.85  1779.75  1791.66  1805.79  1832.64
                             1837.65  1852.09  1861.06  1870.99  1882.13
                             1885.53  1900.93  1911.07  1923.34  1932.38
                             1936.06  1946.92  1951.52  1967.99  1980.56
                             2000.46  2024.64  2029.51  2053.68  2093.45
                             2107.48  2113.59  2121.16  2122.85  2135.35
                             2153.78  4684.76  4687.16  4690.66  4695.76
                             4700.70  4703.48  4712.31  4717.98  4723.10
                             4729.38  4734.27  4737.67  4748.07  4756.90
                             4765.76  4771.27  4829.91  4837.69  4840.43
                             4857.99  5594.88  5596.76

 Zero-point correction=                           0.371476 (Hartree/Particle)
 Thermal correction to Energy=                    0.390758
 Thermal correction to Enthalpy=                  0.391702
 Thermal correction to Gibbs Free Energy=         0.323710
 Sum of electronic and zero-point Energies=          -1297.612885
 Sum of electronic and thermal Energies=             -1297.593603
 Sum of electronic and thermal Enthalpies=           -1297.592658
 Sum of electronic and thermal Free Energies=        -1297.660651

                     E (Thermal)             CV                S
                      KCal/Mol        Cal/Mol-Kelvin    Cal/Mol-Kelvin
 Total                  245.204             77.906            143.102
 Electronic               0.000              0.000              0.000
 Translational            0.889              2.981             43.384
 Rotational               0.889              2.981             35.167
 Vibrational            243.427             71.945             64.550
 Vibration     1          0.593              1.985              6.275
 Vibration     2          0.595              1.977              4.804
 Vibration     3          0.597              1.971              4.320
 Vibration     4          0.599              1.965              3.993
 Vibration     5          0.601              1.960              3.797
 Vibration     6          0.604              1.948              3.419
 Vibration     7          0.621              1.895              2.583
 Vibration     8          0.626              1.877              2.413
 Vibration     9          0.630              1.864              2.309
 Vibration    10          0.639              1.836              2.110
 Vibration    11          0.653              1.794              1.871
 Vibration    12          0.674              1.729              1.599
 Vibration    13          0.679              1.713              1.542
 Vibration    14          0.685              1.697              1.488
 Vibration    15          0.691              1.679              1.432
 Vibration    16          0.698              1.657              1.369
 Vibration    17          0.710              1.624              1.281
 Vibration    18          0.714              1.611              1.248
 Vibration    19          0.724              1.583              1.184
 Vibration    20          0.736              1.550              1.113
 Vibration    21          0.747              1.521              1.055
 Vibration    22          0.768              1.464              0.952
 Vibration    23          0.775              1.445              0.921
 Vibration    24          0.791              1.404              0.858
 Vibration    25          0.796              1.393              0.842
 Vibration    26          0.837              1.294              0.710
 Vibration    27          0.842              1.280              0.693
 Vibration    28          0.858              1.244              0.651
 Vibration    29          0.882              1.190              0.593
 Vibration    30          0.913              1.124              0.529
 Vibration    31          0.930              1.089              0.498
 Vibration    32          0.958              1.031              0.449
 Vibration    33          0.979              0.992              0.419

 Normal termination of Gaussian 09 at Wed Mar 23 06:19:16 2016.
