 Gaussian 09, Revision B.01,
 Gaussian 09:  EM64L-G09RevB.01 12-Aug-2010

 -------------------------------------------------
 # freq=raman b3lyp/6-31+g(2d,p) geom=connectivity
 -------------------------------------------------

 -----------------
 310 5907/5907.com
 -----------------
 Symbolic Z-matrix:
 Charge =  0 Multiplicity = 1

                         Standard orientation:
 ---------------------------------------------------------------------
 Center     Atomic      Atomic             Coordinates (Angstroms)
 Number     Number       Type             X           Y           Z
 ---------------------------------------------------------------------
      1          8           0        5.082304   -0.283473   -0.351841
      2          6           0        3.807679   -0.128661    0.289867
      3          6           0        3.245675    1.152324   -0.304652
      4          8           0        4.207648    2.215792   -0.238336
      5          1           0        5.098465    1.772873   -0.332928
      6          6           0        1.898160    1.534284    0.283616
      7          8           0        1.319964    2.730734   -0.259987
      8          1           0        0.464673    3.032287    0.160742
      9          6           0        2.948525   -2.586854    0.271987
     10          8           0        4.080990   -3.223204   -0.336177
     11          1           0        3.976077   -4.213725   -0.253048
     12          6           0        2.747491   -1.134653   -0.129249
     13          8           0        1.480511   -0.737773    0.416071
     14          6           0        0.891562    0.462997   -0.103726
     15          8           0       -0.293225    0.488127    0.704094
     16          6           0       -1.484752    0.134364   -0.012523
     17          6           0       -2.004361   -1.255804    0.315968
     18          8           0       -1.048453   -2.228518   -0.127172
     19          1           0       -0.140277   -1.809960   -0.129557
     20          6           0       -3.429169   -1.491806   -0.158409
     21          8           0       -3.917426   -2.745321    0.339491
     22          1           0       -4.907269   -2.714863    0.200898
     23          6           0       -2.301083    2.604524   -0.067176
     24          8           0       -1.207087    3.401416    0.410662
     25          1           0       -1.411301    4.329590    0.099265
     26          6           0       -2.571894    1.152124    0.290569
     27          8           0       -3.750458    0.863802   -0.473655
     28          6           0       -4.368475   -0.317089    0.059271
     29          8           0       -5.548206   -0.491278   -0.739509
     30          1           0       -6.305300   -0.630701   -0.165949
     31          1           0        5.763548   -0.401938    0.314096
     32          1           0        2.069393   -3.135639    0.005787
     33          1           0        3.066849   -2.630432    1.334532
     34          1           0        2.671401   -1.099799   -1.195970
     35          1           0        3.898622   -0.062140    1.353918
     36          1           0        3.078575    0.957784   -1.343465
     37          1           0        1.966485    1.607728    1.348904
     38          1           0        0.694979    0.412249   -1.154288
     39          1           0       -3.188279    3.139501    0.200373
     40          1           0       -2.236218    2.633105   -1.134826
     41          1           0       -2.813586    1.094536    1.331323
     42          1           0       -1.270002    0.173239   -1.060030
     43          1           0       -2.030314   -1.324136    1.383469
     44          1           0       -3.363070   -1.610049   -1.219799
     45          1           0       -4.612090   -0.196414    1.094158
 ---------------------------------------------------------------------

 SCF Done:  E(RB3LYP) =  -1297.97923242     A.U. after   13 cycles

 The electronic state is 1-A.
 Alpha  occ. eigenvalues --  -19.18948 -19.18874 -19.18642 -19.18180 -19.17642
 Alpha  occ. eigenvalues --  -19.17487 -19.16603 -19.16042 -19.14517 -19.14096
 Alpha  occ. eigenvalues --  -19.12448 -10.31565 -10.30121 -10.26465 -10.25595
 Alpha  occ. eigenvalues --  -10.25363 -10.25296 -10.25221 -10.24813 -10.24466
 Alpha  occ. eigenvalues --  -10.23970 -10.23851 -10.23730  -1.10310  -1.09793
 Alpha  occ. eigenvalues --   -1.05910  -1.05612  -1.04366  -1.03842  -1.03168
 Alpha  occ. eigenvalues --   -1.02417  -1.01164  -1.00954  -0.99250  -0.82145
 Alpha  occ. eigenvalues --   -0.80306  -0.79629  -0.78197  -0.71806  -0.70063
 Alpha  occ. eigenvalues --   -0.67648  -0.65066  -0.63422  -0.61988  -0.61697
 Alpha  occ. eigenvalues --   -0.60721  -0.57084  -0.55904  -0.55204  -0.54653
 Alpha  occ. eigenvalues --   -0.53909  -0.53591  -0.53028  -0.51522  -0.51352
 Alpha  occ. eigenvalues --   -0.50772  -0.49869  -0.49163  -0.48767  -0.46576
 Alpha  occ. eigenvalues --   -0.45921  -0.45506  -0.44586  -0.43783  -0.43596
 Alpha  occ. eigenvalues --   -0.42584  -0.41733  -0.41250  -0.40361  -0.39917
 Alpha  occ. eigenvalues --   -0.38766  -0.37746  -0.37539  -0.36766  -0.36413
 Alpha  occ. eigenvalues --   -0.36051  -0.35654  -0.34662  -0.33711  -0.33667
 Alpha  occ. eigenvalues --   -0.32823  -0.31355  -0.31056  -0.30201  -0.29985
 Alpha  occ. eigenvalues --   -0.28998  -0.28647  -0.28164  -0.27072  -0.26748
 Alpha  occ. eigenvalues --   -0.25799
 Alpha virt. eigenvalues --   -0.02694  -0.02148  -0.01760  -0.00325   0.00197
 Alpha virt. eigenvalues --    0.01031   0.01860   0.02212   0.03244   0.03524
 Alpha virt. eigenvalues --    0.04115   0.04347   0.04920   0.05425   0.05646

 Mulliken atomic charges:
              1
     1  O   -0.555483
     2  C   -0.084100
     3  C    0.187877
     4  O   -0.575161
     5  H    0.350295
     6  C   -0.091476
     7  O   -0.588232
     8  H    0.412367
     9  C   -0.162650
    10  O   -0.517234
    11  H    0.338228
    12  C    0.141893
    13  O   -0.242408
    14  C    0.231552
    15  O   -0.178601
    16  C    0.238697
    17  C    0.174974
    18  O   -0.562354
    19  H    0.370016
    20  C    0.139581
    21  O   -0.533450
    22  H    0.323707
    23  C   -0.259065
    24  O   -0.557702
    25  H    0.350912
    26  C   -0.098155
    27  O   -0.230898
    28  C    0.007474
    29  O   -0.525822
    30  H    0.335000
    31  H    0.342082
    32  H    0.144387
    33  H    0.139098
    34  H    0.110999
    35  H    0.125197
    36  H    0.107322
    37  H    0.125929
    38  H    0.139800
    39  H    0.148482
    40  H    0.156616
    41  H    0.118785
    42  H    0.112333
    43  H    0.120672
    44  H    0.135208
    45  H    0.133307
 Sum of Mulliken atomic charges =   0.00000

 Dipole moment (field-independent basis, Debye):
    X=             -3.0096    Y=             -0.0038    Z=              2.5971  Tot=              3.9752
 Quadrupole moment (field-independent basis, Debye-Ang):
   XX=           -112.0092   YY=           -139.8977   ZZ=           -140.3728
   XY=            -18.8605   XZ=              0.5322   YZ=             -0.3503

  Exact polarizability: 235.229   1.197 196.029  -0.350  -1.139 143.150
 Approx polarizability: 276.746   0.606 255.173  -0.648  -2.100 239.857

 ******    6 imaginary frequencies (negative Signs) ******

                     1                      2                      3
                     A                      A                      A
 Frequencies --  -308.8859              -252.3273              -225.2583
 Red. masses --     1.7010                 1.8143                 1.2507
 Frc consts  --     0.0956                 0.0681                 0.0374
 IR Inten    --     2.8673                 6.8481                99.8246
 Raman Activ --     0.0289                 0.1567                 0.7775

                     4                      5                      6
                     A                      A                      A
 Frequencies --  -164.5105               -74.3286               -44.3583
 Red. masses --     1.2646                 7.3086                 6.4185
 Frc consts  --     0.0202                 0.0238                 0.0074
 IR Inten    --    88.5446                 1.8950                 0.5768
 Raman Activ --     0.6237                 0.0458                 0.0305

                     7                      8                      9
                     A                      A                      A
 Frequencies --    15.7195                25.9833                67.0523
 Red. masses --     6.3213                 6.3692                 6.9492
 Frc consts  --     0.0009                 0.0025                 0.0184
 IR Inten    --     0.1284                 1.0286                 1.0967
 Raman Activ --     0.0379                 0.0265                 0.1605

                    10                     11                     12
                     A                      A                      A
 Frequencies --    81.0497               109.2115               130.7076
 Red. masses --     5.5775                 5.3400                 5.7655
 Frc consts  --     0.0216                 0.0375                 0.0580
 IR Inten    --     3.7344                10.4886                 0.5358
 Raman Activ --     0.0577                 0.0850                 0.0194

                    13                     14                     15
                     A                      A                      A
 Frequencies --   152.3029               170.7704               185.2025
 Red. masses --     6.3990                 7.9339                 5.9525
 Frc consts  --     0.0875                 0.1363                 0.1203
 IR Inten    --     2.8942                 0.8850                 3.9263
 Raman Activ --     0.4396                 0.7950                 1.0063

                    16                     17                     18
                     A                      A                      A
 Frequencies --   205.2970               233.6724               280.8375
 Red. masses --     6.3870                 6.4217                 4.0570
 Frc consts  --     0.1586                 0.2066                 0.1885
 IR Inten    --     2.2653                 2.4646                 8.0580
 Raman Activ --     0.8237                 0.7427                 0.4924

                    19                     20                     21
                     A                      A                      A
 Frequencies --   284.0090               287.6341               300.7454
 Red. masses --     3.9755                 5.6082                 5.5792
 Frc consts  --     0.1889                 0.2734                 0.2973
 IR Inten    --    11.8125                 4.1528                 4.8443
 Raman Activ --     0.3449                 0.2004                 0.8120

                    22                     23                     24
                     A                      A                      A
 Frequencies --   306.0575               320.7701               339.3867
 Red. masses --     4.9914                 5.9306                 6.9738
 Frc consts  --     0.2755                 0.3595                 0.4733
 IR Inten    --     3.1794                 0.9049                10.5278
 Raman Activ --     1.2908                 1.9834                 4.9756

                    25                     26                     27
                     A                      A                      A
 Frequencies --   347.4744               365.5387               375.8411
 Red. masses --     5.0676                 4.8865                 7.6267
 Frc consts  --     0.3605                 0.3847                 0.6347
 IR Inten    --     6.4631                 6.6690                 4.9877
 Raman Activ --     0.4590                 0.5394                 3.7250

                    28                     29                     30
                     A                      A                      A
 Frequencies --   409.5759               418.7536               427.7545
 Red. masses --     4.7587                 5.2547                 4.7132
 Frc consts  --     0.4703                 0.5429                 0.5081
 IR Inten    --    10.4453                 0.2797                 3.6426
 Raman Activ --     1.8698                 4.3219                 5.9089

                    31                     32                     33
                     A                      A                      A
 Frequencies --   438.3416               486.2211               502.3019
 Red. masses --     4.4785                 5.2531                 4.1334
 Frc consts  --     0.5070                 0.7317                 0.6145
 IR Inten    --     5.7472                 5.6233                17.5818
 Raman Activ --     0.8595                 1.1350                 2.5172

                    34                     35                     36
                     A                      A                      A
 Frequencies --   512.5866               538.0067               570.9058
 Red. masses --     3.8577                 3.0920                 3.7175
 Frc consts  --     0.5972                 0.5273                 0.7139
 IR Inten    --     7.2151                 7.4487                 4.6871
 Raman Activ --     4.1015                 2.8444                 1.1645

                    37                     38                     39
                     A                      A                      A
 Frequencies --   585.3302               606.9880               627.3573
 Red. masses --     3.2492                 4.9464                 5.5531
 Frc consts  --     0.6559                 1.0737                 1.2877
 IR Inten    --    54.4758                 2.0326                45.1519
 Raman Activ --     0.5086                 0.6451                 1.0495

                    40                     41                     42
                     A                      A                      A
 Frequencies --   639.3135               692.4229               703.8837
 Red. masses --     4.5323                 3.9175                 1.1134
 Frc consts  --     1.0914                 1.1066                 0.3250
 IR Inten    --     2.3745                20.6488                92.5653
 Raman Activ --     0.3357                 0.6746                 2.0092

                    43                     44                     45
                     A                      A                      A
 Frequencies --   709.5298               714.9361               730.8106
 Red. masses --     1.1225                 1.0751                 1.1012
 Frc consts  --     0.3330                 0.3238                 0.3465
 IR Inten    --    69.6749                57.8473               129.6926
 Raman Activ --     1.5496                 1.2714                 1.6867

                    46                     47                     48
                     A                      A                      A
 Frequencies --   764.0158               780.6758               853.6025
 Red. masses --     1.0579                 1.0634                 1.8047
 Frc consts  --     0.3638                 0.3818                 0.7748
 IR Inten    --   119.3182                78.2303                 0.5621
 Raman Activ --     1.1302                 1.2661                 1.2988

                    49                     50                     51
                     A                      A                      A
 Frequencies --   858.7677               910.2692               952.7391
 Red. masses --     1.7609                 6.0131                 4.5063
 Frc consts  --     0.7651                 2.9355                 2.4100
 IR Inten    --     6.3717               142.9532                61.9643
 Raman Activ --     0.7393                 3.7388                 0.1905

                    52                     53                     54
                     A                      A                      A
 Frequencies --   973.2386               975.8648               990.0290
 Red. masses --     3.9925                 5.3672                 6.9024
 Frc consts  --     2.2281                 3.0115                 3.9861
 IR Inten    --    63.6913                92.4297                95.9283
 Raman Activ --     2.8637                 3.1113                 1.9096

                    55                     56                     57
                     A                      A                      A
 Frequencies --   998.4153              1005.1853              1015.6350
 Red. masses --     7.9954                 5.9199                 5.2817
 Frc consts  --     4.6958                 3.5242                 3.2100
 IR Inten    --   223.0230                90.9588               180.8013
 Raman Activ --     1.3018                 2.6182                 3.2514

                    58                     59                     60
                     A                      A                      A
 Frequencies --  1039.9639              1052.1356              1060.3956
 Red. masses --     6.6409                 5.8631                 3.2929
 Frc consts  --     4.2317                 3.8240                 2.1816
 IR Inten    --   256.9604                79.0895                61.8840
 Raman Activ --     1.3821                 1.2379                11.1693

                    61                     62                     63
                     A                      A                      A
 Frequencies --  1068.2300              1069.6946              1083.6495
 Red. masses --     4.9733                 3.5810                 5.7889
 Frc consts  --     3.3437                 2.4142                 4.0052
 IR Inten    --   108.7804                 7.4049                21.7219
 Raman Activ --    11.6426                13.0578                 9.1245

                    64                     65                     66
                     A                      A                      A
 Frequencies --  1093.7019              1101.1828              1111.4588
 Red. masses --     2.6654                 2.3383                 3.0364
 Frc consts  --     1.8785                 1.6706                 2.2100
 IR Inten    --    57.1895                72.7677                 4.7869
 Raman Activ --     4.8266                 3.3797                 3.0814

                    67                     68                     69
                     A                      A                      A
 Frequencies --  1113.5719              1126.1143              1133.6066
 Red. masses --     2.3088                 3.3028                 2.3933
 Frc consts  --     1.6868                 2.4677                 1.8120
 IR Inten    --    51.6861                54.4772                19.4993
 Raman Activ --     6.5384                 4.7089                 6.0702

                    70                     71                     72
                     A                      A                      A
 Frequencies --  1139.7490              1152.4604              1159.1678
 Red. masses --     2.7369                 2.1834                 1.7405
 Frc consts  --     2.0947                 1.7086                 1.3779
 IR Inten    --    75.9830                12.0947                42.4794
 Raman Activ --     5.2708                 6.2882                 2.9415

                    73                     74                     75
                     A                      A                      A
 Frequencies --  1174.4669              1180.6429              1188.9871
 Red. masses --     2.1199                 1.6798                 1.8012
 Frc consts  --     1.7229                 1.3796                 1.5003
 IR Inten    --    13.5882                 0.8670                30.5529
 Raman Activ --     3.9452                 1.8783                 1.4170

                    76                     77                     78
                     A                      A                      A
 Frequencies --  1196.0472              1205.0491              1212.6344
 Red. masses --     1.3427                 1.4581                 1.3544
 Frc consts  --     1.1317                 1.2475                 1.1734
 IR Inten    --     9.8147                 4.6240                18.2318
 Raman Activ --     0.5403                 0.4950                 2.1808

                    79                     80                     81
                     A                      A                      A
 Frequencies --  1227.5839              1244.4442              1261.1792
 Red. masses --     1.2946                 1.3062                 1.1841
 Frc consts  --     1.1494                 1.1918                 1.1096
 IR Inten    --     2.4106                 7.1063                 2.8976
 Raman Activ --     2.2952                 1.2951                 4.5281

                    82                     83                     84
                     A                      A                      A
 Frequencies --  1267.0051              1271.9504              1289.0945
 Red. masses --     1.3048                 1.3524                 1.3407
 Frc consts  --     1.2341                 1.2892                 1.3126
 IR Inten    --     7.6053                 2.3458                29.9077
 Raman Activ --     1.2457                 2.4851                 2.9427

                    85                     86                     87
                     A                      A                      A
 Frequencies --  1293.1318              1305.3395              1312.8085
 Red. masses --     1.1910                 1.2750                 1.2817
 Frc consts  --     1.1734                 1.2800                 1.3014
 IR Inten    --    32.2640                15.9942                30.8832
 Raman Activ --     2.9158                 0.9781                 5.7464

                    88                     89                     90
                     A                      A                      A
 Frequencies --  1316.3890              1322.5260              1329.8104
 Red. masses --     1.3535                 1.2527                 1.2161
 Frc consts  --     1.3819                 1.2910                 1.2670
 IR Inten    --     9.7445                 9.3874                55.2654
 Raman Activ --     7.9414                 4.0219                 2.6484

                    91                     92                     93
                     A                      A                      A
 Frequencies --  1335.8503              1344.7933              1359.3895
 Red. masses --     1.3122                 1.1799                 1.3546
 Frc consts  --     1.3796                 1.2572                 1.4749
 IR Inten    --    33.6991                18.9435                 5.4467
 Raman Activ --     9.3708                 6.5181                 4.3992

                    94                     95                     96
                     A                      A                      A
 Frequencies --  1364.3574              1370.9813              1377.7506
 Red. masses --     1.3151                 1.2080                 1.2173
 Frc consts  --     1.4423                 1.3378                 1.3614
 IR Inten    --     3.7168                40.6621                13.2605
 Raman Activ --     5.6015                 2.4504                 1.5960

                    97                     98                     99
                     A                      A                      A
 Frequencies --  1379.2346              1396.7935              1402.3798
 Red. masses --     1.3816                 1.5368                 1.4377
 Frc consts  --     1.5485                 1.7666                 1.6659
 IR Inten    --    15.5900                 5.7493                 3.3671
 Raman Activ --     7.9796                 4.2016                 5.5045

                   100                    101                    102
                     A                      A                      A
 Frequencies --  1427.0696              1456.5863              1457.6518
 Red. masses --     1.2707                 1.4823                 1.4238
 Frc consts  --     1.5247                 1.8530                 1.7824
 IR Inten    --    20.2123                93.8882                21.3647
 Raman Activ --     1.0225                 1.3615                 1.1849

                   103                    104                    105
                     A                      A                      A
 Frequencies --  1461.6951              1470.9118              1471.3634
 Red. masses --     1.3372                 1.1219                 1.1022
 Frc consts  --     1.6832                 1.4302                 1.4058
 IR Inten    --    17.6626                 6.9564                 7.0682
 Raman Activ --     2.8585                 1.9230                 4.9449

                   106                    107                    108
                     A                      A                      A
 Frequencies --  1500.4769              1504.7978              3255.2448
 Red. masses --     1.2668                 1.3223                 1.0649
 Frc consts  --     1.6804                 1.7642                 6.6485
 IR Inten    --    34.3876                30.2923               179.0142
 Raman Activ --     2.7640                 0.7275                25.8575

                   109                    110                    111
                     A                      A                      A
 Frequencies --  3255.6474              3259.1229              3264.1606
 Red. masses --     1.0600                 1.0759                 1.0799
 Frc consts  --     6.6194                 6.7330                 6.7792
 IR Inten    --   130.7799                43.2410                20.6557
 Raman Activ --    33.7081               112.5602               104.4381

                   112                    113                    114
                     A                      A                      A
 Frequencies --  3268.5721              3270.4132              3276.6722
 Red. masses --     1.0823                 1.0686                 1.0830
 Frc consts  --     6.8127                 6.7337                 6.8510
 IR Inten    --     8.0736               507.3472                 2.1202
 Raman Activ --    51.4967               295.3182                91.2643

                   115                    116                    117
                     A                      A                      A
 Frequencies --  3277.2783              3283.9529              3291.2576
 Red. masses --     1.0823                 1.0864                 1.0855
 Frc consts  --     6.8491                 6.9030                 6.9278
 IR Inten    --     8.3354                 0.5830                23.1889
 Raman Activ --    98.8809                18.8017                34.3531

                   118                    119                    120
                     A                      A                      A
 Frequencies --  3294.7811              3300.8104              3305.9794
 Red. masses --     1.0874                 1.0876                 1.0882
 Frc consts  --     6.9550                 6.9817                 7.0077
 IR Inten    --    72.1508                 2.9122                52.1428
 Raman Activ --    18.6702                55.4676                11.0600

                   121                    122                    123
                     A                      A                      A
 Frequencies --  3309.8648              3314.6272              3315.2063
 Red. masses --     1.1024                 1.0701                 1.1061
 Frc consts  --     7.1153                 6.9268                 7.1622
 IR Inten    --    99.8623               444.7082                56.0090
 Raman Activ --    49.5761               146.5110                36.2432

                   124                    125                    126
                     A                      A                      A
 Frequencies --  3363.4631              3367.2713              3370.3649
 Red. masses --     1.0639                 1.0653                 1.0662
 Frc consts  --     7.0916                 7.1166                 7.1360
 IR Inten    --    56.9532                25.0860                65.6726
 Raman Activ --    88.1983               116.6059               129.8513

                   127                    128                    129
                     A                      A                      A
 Frequencies --  3375.1543              3889.3475              3892.8788
 Red. masses --     1.0674                 1.0675                 1.0674
 Frc consts  --     7.1643                 9.5145                 9.5309
 IR Inten    --    45.0423                80.3710                73.2804
 Raman Activ --   162.1357               101.0905               117.4740

 - Thermochemistry -
 -------------------
 Temperature   298.150 Kelvin.  Pressure   1.00000 Atm.
 Atom     1 has atomic number  8 and mass  15.99491

 Molecular mass:   342.11621 amu.
 Principal axes and moments of inertia in atomic units:
                           1         2         3
     Eigenvalues --  4393.62168********************
           X            0.99997  -0.00824  -0.00035
           Y            0.00824   0.99996  -0.00178
           Z            0.00037   0.00178   1.00000
 This molecule is an asymmetric top.
 Rotational symmetry number  1.
 Warning -- assumption of classical behavior for rotation
           may cause significant error
 Rotational temperatures (Kelvin)      0.01971     0.00697     0.00528
 Rotational constants (GHZ):           0.41076     0.14519     0.11007
    6 imaginary frequencies ignored.
 Zero-point vibrational energy     974759.4 (Joules/Mol)
                                  232.97309 (Kcal/Mol)
 Warning -- explicit consideration of  32 degrees of freedom as
           vibrations may cause significant error
 Vibrational temperatures:     22.62    37.38    96.47   116.61   157.13
          (Kelvin)            188.06   219.13   245.70   266.46   295.38
                              336.20   404.06   408.63   413.84   432.71
                              440.35   461.52   488.30   499.94   525.93
                              540.75   589.29   602.49   615.44   630.67
                              699.56   722.70   737.50   774.07   821.41
                              842.16   873.32   902.63   919.83   996.24
                             1012.73  1020.85  1028.63  1051.47  1099.25
                             1123.22  1228.14  1235.57  1309.67  1370.78
                             1400.27  1404.05  1424.43  1436.50  1446.24
                             1461.27  1496.27  1513.79  1525.67  1536.94
                             1539.05  1559.13  1573.59  1584.35  1599.14
                             1602.18  1620.23  1631.01  1639.84  1658.13
                             1667.78  1689.79  1698.68  1710.69  1720.84
                             1733.79  1744.71  1766.22  1790.48  1814.55
                             1822.94  1830.05  1854.72  1860.53  1878.09
                             1888.84  1893.99  1902.82  1913.30  1921.99
                             1934.86  1955.86  1963.00  1972.53  1982.27
                             1984.41  2009.67  2017.71  2053.23  2095.70
                             2097.23  2103.05  2116.31  2116.96  2158.85
                             2165.07  4683.57  4684.14  4689.15  4696.39
                             4702.74  4705.39  4714.39  4715.27  4724.87
                             4735.38  4740.45  4749.12  4756.56  4762.15
                             4769.00  4769.84  4839.27  4844.75  4849.20
                             4856.09  5595.90  5600.98

 Zero-point correction=                           0.371266 (Hartree/Particle)
 Thermal correction to Energy=                    0.390433
 Thermal correction to Enthalpy=                  0.391378
 Thermal correction to Gibbs Free Energy=         0.323081
 Sum of electronic and zero-point Energies=          -1297.607966
 Sum of electronic and thermal Energies=             -1297.588799
 Sum of electronic and thermal Enthalpies=           -1297.587855
 Sum of electronic and thermal Free Energies=        -1297.656152

                     E (Thermal)             CV                S
                      KCal/Mol        Cal/Mol-Kelvin    Cal/Mol-Kelvin
 Total                  245.001             77.861            143.743
 Electronic               0.000              0.000              0.000
 Translational            0.889              2.981             43.384
 Rotational               0.889              2.981             35.147
 Vibrational            243.223             71.900             65.211
 Vibration     1          0.593              1.986              7.112
 Vibration     2          0.593              1.985              6.115
 Vibration     3          0.598              1.970              4.238
 Vibration     4          0.600              1.962              3.865
 Vibration     5          0.606              1.942              3.283
 Vibration     6          0.612              1.923              2.936
 Vibration     7          0.619              1.900              2.643
 Vibration     8          0.626              1.878              2.427
 Vibration     9          0.631              1.860              2.275
 Vibration    10          0.640              1.832              2.085
 Vibration    11          0.654              1.789              1.851
 Vibration    12          0.681              1.709              1.529
 Vibration    13          0.682              1.703              1.509
 Vibration    14          0.685              1.697              1.488
 Vibration    15          0.693              1.672              1.413
 Vibration    16          0.696              1.662              1.384
 Vibration    17          0.706              1.634              1.306
 Vibration    18          0.719              1.597              1.215
 Vibration    19          0.725              1.580              1.178
 Vibration    20          0.739              1.543              1.098
 Vibration    21          0.747              1.522              1.056
 Vibration    22          0.774              1.449              0.928
 Vibration    23          0.782              1.429              0.896
 Vibration    24          0.789              1.410              0.866
 Vibration    25          0.799              1.387              0.832
 Vibration    26          0.842              1.281              0.693
 Vibration    27          0.858              1.245              0.652
 Vibration    28          0.868              1.222              0.627
 Vibration    29          0.893              1.166              0.570
 Vibration    30          0.927              1.094              0.503
 Vibration    31          0.942              1.063              0.476
 Vibration    32          0.966              1.017              0.438

 Normal termination of Gaussian 09 at Wed Mar 23 18:49:21 2016.
