 Gaussian 09, Revision B.01,
 Gaussian 09:  EM64L-G09RevB.01 12-Aug-2010

 --------------------------------------------------
 # freq=raman b3lyp/6-31+g(2df,p) geom=connectivity
 --------------------------------------------------

 -------------
 350 10000.com
 -------------
 Symbolic Z-matrix:
 Charge =  0 Multiplicity = 1

                         Standard orientation:
 ---------------------------------------------------------------------
 Center     Atomic      Atomic             Coordinates (Angstroms)
 Number     Number       Type             X           Y           Z
 ---------------------------------------------------------------------
      1          8           0       -5.062222   -0.529919    0.439654
      2          6           0       -3.786393   -0.147736   -0.092626
      3          6           0       -3.329891    1.259244    0.258791
      4          8           0       -4.279669    2.163358   -0.324531
      5          1           0       -5.148700    1.934139    0.115188
      6          6           0       -1.877722    1.527806   -0.100089
      7          8           0       -1.401833    2.723965    0.534567
      8          1           0       -0.440012    2.816696    0.274764
      9          6           0       -3.083465   -2.583699    0.347988
     10          8           0       -3.831941   -3.024891   -0.793606
     11          1           0       -3.569569   -3.982015   -0.910889
     12          6           0       -2.736711   -1.106625    0.444440
     13          8           0       -1.520259   -0.840807   -0.269178
     14          6           0       -0.986165    0.363916    0.299471
     15          8           0        0.240148    0.546981   -0.422794
     16          6           0        1.502696    0.204339    0.167610
     17          6           0        2.012633   -1.158840   -0.270996
     18          8           0        1.082257   -2.214129    0.013578
     19          1           0        0.140306   -1.888490    0.100927
     20          6           0        3.424912   -1.395588    0.236796
     21          8           0        3.987381   -2.692795   -0.009760
     22          1           0        4.969547   -2.708933    0.179127
     23          6           0        2.379968    2.618728   -0.114241
     24          8           0        1.079938    3.181524   -0.342442
     25          1           0        1.096262    4.180899   -0.313041
     26          6           0        2.549413    1.138568   -0.417240
     27          8           0        3.865525    0.873513    0.087783
     28          6           0        4.425132   -0.387331   -0.306487
     29          8           0        5.546425   -0.397925    0.590511
     30          1           0        6.359528   -0.471571    0.085498
     31          1           0        4.663517   -0.475918   -1.345826
     32          1           0        3.395569   -1.266344    1.298556
     33          1           0        2.088048   -1.116155   -1.337481
     34          1           0        1.468897    0.281829    1.234265
     35          1           0        2.560544    1.009241   -1.479337
     36          1           0        3.082580    3.159795   -0.712975
     37          1           0        2.630324    2.774915    0.914267
     38          1           0       -5.647840   -0.777589   -0.279589
     39          1           0       -3.641960   -2.843923    1.222784
     40          1           0       -2.166328   -3.134495    0.367596
     41          1           0       -2.573967   -0.873538    1.475985
     42          1           0       -3.820417   -0.239080   -1.158176
     43          1           0       -3.411398    1.360662    1.320851
     44          1           0       -1.810088    1.657360   -1.160061
     45          1           0       -0.837290    0.294803    1.356807
 ---------------------------------------------------------------------

 SCF Done:  E(RB3LYP) =  -1298.01553384     A.U. after   13 cycles

 The electronic state is 1-A.
 Alpha  occ. eigenvalues --  -19.18500 -19.18476 -19.17864 -19.17650 -19.17469
 Alpha  occ. eigenvalues --  -19.16566 -19.16237 -19.15480 -19.14971 -19.14150
 Alpha  occ. eigenvalues --  -19.13078 -10.30931 -10.30289 -10.25830 -10.25803
 Alpha  occ. eigenvalues --  -10.25060 -10.24884 -10.24626 -10.24511 -10.24223
 Alpha  occ. eigenvalues --  -10.23913 -10.23885 -10.23769  -1.09909  -1.09456
 Alpha  occ. eigenvalues --   -1.05310  -1.04764  -1.03638  -1.03089  -1.02608
 Alpha  occ. eigenvalues --   -1.02153  -1.01713  -1.00420  -0.99858  -0.82301
 Alpha  occ. eigenvalues --   -0.79847  -0.79418  -0.77662  -0.71858  -0.70025
 Alpha  occ. eigenvalues --   -0.67289  -0.64642  -0.62917  -0.61890  -0.61629
 Alpha  occ. eigenvalues --   -0.60289  -0.56900  -0.55394  -0.55014  -0.54238
 Alpha  occ. eigenvalues --   -0.53749  -0.52892  -0.52781  -0.52363  -0.51349
 Alpha  occ. eigenvalues --   -0.50257  -0.49824  -0.48898  -0.46697  -0.46531
 Alpha  occ. eigenvalues --   -0.45821  -0.44950  -0.44887  -0.44275  -0.42914
 Alpha  occ. eigenvalues --   -0.42189  -0.41639  -0.41007  -0.40664  -0.39276
 Alpha  occ. eigenvalues --   -0.39061  -0.38260  -0.37416  -0.36106  -0.35579
 Alpha  occ. eigenvalues --   -0.34661  -0.34390  -0.34239  -0.33991  -0.33718
 Alpha  occ. eigenvalues --   -0.33399  -0.31587  -0.30826  -0.30012  -0.29945
 Alpha  occ. eigenvalues --   -0.29311  -0.28563  -0.27539  -0.27403  -0.26702
 Alpha  occ. eigenvalues --   -0.25966
 Alpha virt. eigenvalues --   -0.02113  -0.01759  -0.01143  -0.00394   0.00182
 Alpha virt. eigenvalues --    0.00876   0.01715   0.02693   0.03179   0.03483
 Alpha virt. eigenvalues --    0.03866   0.04195   0.04422   0.05148   0.05510

 Mulliken atomic charges:
              1
     1  O   -0.484125
     2  C   -0.052325
     3  C   -0.008800
     4  O   -0.456695
     5  H    0.347025
     6  C   -0.071267
     7  O   -0.511721
     8  H    0.446357
     9  C   -0.545422
    10  O   -0.457349
    11  H    0.344407
    12  C    0.379027
    13  O   -0.063472
    14  C   -0.254942
    15  O   -0.005748
    16  C   -0.051216
    17  C    0.139354
    18  O   -0.496620
    19  H    0.389687
    20  C    0.070023
    21  O   -0.475628
    22  H    0.346575
    23  C   -0.346358
    24  O   -0.505202
    25  H    0.375831
    26  C   -0.129057
    27  O   -0.022715
    28  C   -0.080663
    29  O   -0.457845
    30  H    0.342477
    31  H    0.148604
    32  H    0.133543
    33  H    0.116538
    34  H    0.126868
    35  H    0.127835
    36  H    0.150995
    37  H    0.159633
    38  H    0.358458
    39  H    0.153289
    40  H    0.144831
    41  H    0.110963
    42  H    0.146294
    43  H    0.130979
    44  H    0.144514
    45  H    0.143061
 Sum of Mulliken atomic charges =   0.00000

 Dipole moment (field-independent basis, Debye):
    X=              3.1934    Y=              0.3606    Z=             -0.3883  Tot=              3.2371
 Quadrupole moment (field-independent basis, Debye-Ang):
   XX=           -114.6881   YY=           -138.4302   ZZ=           -138.2821
   XY=             17.1362   XZ=            -10.2010   YZ=             -2.2146

  Exact polarizability: 236.140  -2.277 194.422   0.011   0.363 144.593
 Approx polarizability: 276.935  -2.257 253.682   0.476   2.701 240.653

 ******    6 imaginary frequencies (negative Signs) ******

                     1                      2                      3
                     A                      A                      A
 Frequencies --  -248.6059              -242.0979              -151.6055
 Red. masses --     1.6961                 1.8562                 1.2128
 Frc consts  --     0.0618                 0.0641                 0.0164
 IR Inten    --    11.4992                 2.2977                89.8787
 Raman Activ --     0.1194                 0.1134                 0.9434

                     4                      5                      6
                     A                      A                      A
 Frequencies --  -137.6140               -71.6577               -42.1309
 Red. masses --     1.2184                 6.5111                 6.1632
 Frc consts  --     0.0136                 0.0197                 0.0064
 IR Inten    --    99.1200                 4.3547                 1.4712
 Raman Activ --     0.7492                 0.0370                 0.0220

                     7                      8                      9
                     A                      A                      A
 Frequencies --    18.5980                52.3790                73.5168
 Red. masses --     6.3843                 6.0653                 6.0248
 Frc consts  --     0.0013                 0.0098                 0.0192
 IR Inten    --     0.8738                 5.2520                 0.5809
 Raman Activ --     0.0266                 0.1246                 0.2367

                    10                     11                     12
                     A                      A                      A
 Frequencies --    88.6876               100.4242               122.1088
 Red. masses --     6.6528                 6.8131                 5.6946
 Frc consts  --     0.0308                 0.0405                 0.0500
 IR Inten    --     1.5790                 0.5152                 0.5686
 Raman Activ --     0.0847                 0.0876                 0.1571

                    13                     14                     15
                     A                      A                      A
 Frequencies --   154.9810               168.9091               193.9087
 Red. masses --     6.1577                 6.0868                 6.8431
 Frc consts  --     0.0871                 0.1023                 0.1516
 IR Inten    --     3.4746                 5.2414                 0.8549
 Raman Activ --     0.5358                 0.4814                 1.1116

                    16                     17                     18
                     A                      A                      A
 Frequencies --   210.9461               236.8857               265.3869
 Red. masses --     6.7697                 5.9862                 5.9457
 Frc consts  --     0.1775                 0.1979                 0.2467
 IR Inten    --     0.2004                 0.4640                 1.6228
 Raman Activ --     1.5296                 0.4534                 0.7843

                    19                     20                     21
                     A                      A                      A
 Frequencies --   271.5768               287.7598               290.9687
 Red. masses --     5.1468                 5.2495                 4.7996
 Frc consts  --     0.2237                 0.2561                 0.2394
 IR Inten    --     2.3318                 2.4798                 2.5041
 Raman Activ --     0.1147                 0.7454                 0.5793

                    22                     23                     24
                     A                      A                      A
 Frequencies --   296.2669               317.3037               329.5174
 Red. masses --     5.0098                 6.2545                 4.6529
 Frc consts  --     0.2591                 0.3710                 0.2977
 IR Inten    --    11.9538                 3.2349                 7.4131
 Raman Activ --     0.6668                 1.2094                 0.8594

                    25                     26                     27
                     A                      A                      A
 Frequencies --   347.0452               364.6051               388.5569
 Red. masses --     6.1794                 4.1484                 5.9914
 Frc consts  --     0.4385                 0.3249                 0.5330
 IR Inten    --     8.3856                 6.5089                 4.4655
 Raman Activ --     3.2687                 0.4179                 2.5876

                    28                     29                     30
                     A                      A                      A
 Frequencies --   410.5979               418.0729               442.3261
 Red. masses --     6.2497                 5.2672                 4.2182
 Frc consts  --     0.6208                 0.5424                 0.4863
 IR Inten    --    10.5291                 5.6085                 6.0541
 Raman Activ --     5.4730                 1.5313                 1.7383

                    31                     32                     33
                     A                      A                      A
 Frequencies --   460.3201               485.1917               505.5779
 Red. masses --     4.7268                 4.1067                 3.7507
 Frc consts  --     0.5901                 0.5696                 0.5649
 IR Inten    --     3.5252                18.3366                11.6748
 Raman Activ --     0.6473                 1.8536                 5.7316

                    34                     35                     36
                     A                      A                      A
 Frequencies --   519.5503               562.8557               576.3399
 Red. masses --     4.8960                 3.5922                 4.2492
 Frc consts  --     0.7787                 0.6705                 0.8316
 IR Inten    --    12.6610                10.3836                 6.6766
 Raman Activ --     6.3006                 1.2238                 0.5185

                    37                     38                     39
                     A                      A                      A
 Frequencies --   584.3863               600.4697               629.8023
 Red. masses --     4.0076                 3.1942                 5.4581
 Frc consts  --     0.8064                 0.6786                 1.2756
 IR Inten    --    42.3772                20.1954                 3.7041
 Raman Activ --     0.5039                 0.5810                 0.4507

                    40                     41                     42
                     A                      A                      A
 Frequencies --   672.5884               695.5051               704.5046
 Red. masses --     3.9880                 3.0758                 1.1681
 Frc consts  --     1.0629                 0.8766                 0.3416
 IR Inten    --    11.6831                34.2334                29.6934
 Raman Activ --     0.4977                 0.7418                 1.0570

                    43                     44                     45
                     A                      A                      A
 Frequencies --   710.4835               713.2251               727.3161
 Red. masses --     1.0840                 1.0596                 1.0760
 Frc consts  --     0.3224                 0.3176                 0.3354
 IR Inten    --    39.7146               133.4127               121.4314
 Raman Activ --     0.9065                 2.3180                 1.4757

                    46                     47                     48
                     A                      A                      A
 Frequencies --   751.8880               854.6871               862.6648
 Red. masses --     1.0899                 3.0998                 1.5251
 Frc consts  --     0.3630                 1.3341                 0.6687
 IR Inten    --    94.5101                20.5614                14.3930
 Raman Activ --     1.8039                 5.8975                 0.6072

                    49                     50                     51
                     A                      A                      A
 Frequencies --   903.4783               904.0846               920.0838
 Red. masses --     1.1842                 3.0905                 4.6427
 Frc consts  --     0.5695                 1.4883                 2.3157
 IR Inten    --    68.6831                53.9687                74.1112
 Raman Activ --     0.7321                 3.9629                 2.7929

                    52                     53                     54
                     A                      A                      A
 Frequencies --   940.9428               976.4527               988.3226
 Red. masses --     5.6017                 4.7563                 5.6298
 Frc consts  --     2.9221                 2.6719                 3.2400
 IR Inten    --    19.3183               162.9312                 2.2408
 Raman Activ --     1.5398                 4.0915                 3.2014

                    55                     56                     57
                     A                      A                      A
 Frequencies --   994.7570              1002.7196              1018.0806
 Red. masses --     6.4417                 5.7305                 5.7905
 Frc consts  --     3.7556                 3.3947                 3.5362
 IR Inten    --   324.7497                63.2771               202.5926
 Raman Activ --     0.8531                 0.6622                 1.6036

                    58                     59                     60
                     A                      A                      A
 Frequencies --  1038.3284              1054.0532              1058.8407
 Red. masses --     4.4272                 2.7104                 3.8200
 Frc consts  --     2.8122                 1.7742                 2.5233
 IR Inten    --   114.6308               187.6761                69.1689
 Raman Activ --    11.5098                 2.2910                 5.7583

                    61                     62                     63
                     A                      A                      A
 Frequencies --  1063.9135              1072.3053              1085.8838
 Red. masses --     3.4182                 2.7162                 4.8159
 Frc consts  --     2.2796                 1.8401                 3.3457
 IR Inten    --    17.1528                10.6396                53.0175
 Raman Activ --     7.4229                17.9148                 0.9358

                    64                     65                     66
                     A                      A                      A
 Frequencies --  1089.7911              1096.3615              1103.9798
 Red. masses --     4.3524                 2.7725                 2.5256
 Frc consts  --     3.0455                 1.9635                 1.8136
 IR Inten    --   140.3548                76.3294                48.3345
 Raman Activ --     1.1024                 4.8524                 3.0136

                    67                     68                     69
                     A                      A                      A
 Frequencies --  1108.1757              1118.4650              1126.5030
 Red. masses --     2.2703                 2.0236                 2.7170
 Frc consts  --     1.6427                 1.4915                 2.0315
 IR Inten    --     1.9239                16.3504                40.9174
 Raman Activ --     5.0561                 2.3722                11.0810

                    70                     71                     72
                     A                      A                      A
 Frequencies --  1137.5364              1147.9476              1154.1698
 Red. masses --     2.4759                 2.8500                 2.1092
 Frc consts  --     1.8876                 2.2128                 1.6554
 IR Inten    --    28.9404                90.7132                40.4676
 Raman Activ --     3.0506                 3.1765                 1.4946

                    73                     74                     75
                     A                      A                      A
 Frequencies --  1162.9631              1175.5592              1178.4740
 Red. masses --     1.7817                 1.8731                 2.0622
 Frc consts  --     1.4197                 1.5251                 1.6874
 IR Inten    --    18.9838                 8.9624                20.2301
 Raman Activ --     6.1543                 2.1881                 3.3669

                    76                     77                     78
                     A                      A                      A
 Frequencies --  1194.0940              1200.8747              1210.0708
 Red. masses --     1.4342                 1.5332                 1.5613
 Frc consts  --     1.2048                 1.3027                 1.3470
 IR Inten    --    14.5786                 8.0272                 7.7136
 Raman Activ --     3.1787                 1.6664                 0.2796

                    79                     80                     81
                     A                      A                      A
 Frequencies --  1220.2872              1236.2583              1255.3697
 Red. masses --     1.2884                 1.2183                 1.3624
 Frc consts  --     1.1303                 1.0971                 1.2650
 IR Inten    --     3.7967                18.9563                12.8275
 Raman Activ --     2.2117                 0.7262                 4.5725

                    82                     83                     84
                     A                      A                      A
 Frequencies --  1261.0653              1273.6722              1278.4294
 Red. masses --     1.2518                 1.2612                 1.2714
 Frc consts  --     1.1729                 1.2055                 1.2243
 IR Inten    --     6.4854                26.8849                18.9517
 Raman Activ --     3.0802                 2.8710                 3.7536

                    85                     86                     87
                     A                      A                      A
 Frequencies --  1279.7937              1285.3472              1296.6298
 Red. masses --     1.2153                 1.2909                 1.3244
 Frc consts  --     1.1728                 1.2566                 1.3119
 IR Inten    --    35.5412                 3.8846                22.2214
 Raman Activ --     4.5345                 2.2770                 2.4389

                    88                     89                     90
                     A                      A                      A
 Frequencies --  1311.0794              1324.2264              1330.5333
 Red. masses --     1.3335                 1.2369                 1.2164
 Frc consts  --     1.3505                 1.2779                 1.2688
 IR Inten    --     9.4431                59.0821                12.2110
 Raman Activ --     8.6269                 4.2235                 1.8551

                    91                     92                     93
                     A                      A                      A
 Frequencies --  1334.5134              1340.7154              1344.6808
 Red. masses --     1.3260                 1.3563                 1.3656
 Frc consts  --     1.3913                 1.4364                 1.4548
 IR Inten    --    17.8587                 4.7890                61.0971
 Raman Activ --     2.4618                 6.1612                10.1534

                    94                     95                     96
                     A                      A                      A
 Frequencies --  1350.3649              1353.3924              1359.2036
 Red. masses --     1.4841                 1.2521                 1.1682
 Frc consts  --     1.5945                 1.3512                 1.2716
 IR Inten    --     8.5840                 1.6192                21.8039
 Raman Activ --     4.3843                 1.7447                 4.6694

                    97                     98                     99
                     A                      A                      A
 Frequencies --  1377.2761              1382.0802              1393.9268
 Red. masses --     1.3753                 1.5361                 1.3705
 Frc consts  --     1.5371                 1.7287                 1.5689
 IR Inten    --    23.7809                 3.8842                 8.1433
 Raman Activ --     3.8187                 3.5653                 3.7014

                   100                    101                    102
                     A                      A                      A
 Frequencies --  1414.2814              1442.3586              1445.4521
 Red. masses --     1.4803                 1.1457                 1.3995
 Frc consts  --     1.7445                 1.4044                 1.7228
 IR Inten    --    23.5853                36.6596                20.1561
 Raman Activ --     0.2841                 3.2464                 1.2129

                   103                    104                    105
                     A                      A                      A
 Frequencies --  1455.8743              1464.0886              1467.4849
 Red. masses --     1.2838                 1.3409                 1.0829
 Frc consts  --     1.6032                 1.6934                 1.3740
 IR Inten    --    21.8659                39.8101                 3.5479
 Raman Activ --     3.7261                 1.0973                 4.6596

                   106                    107                    108
                     A                      A                      A
 Frequencies --  1475.6273              1525.1618              3219.0401
 Red. masses --     1.3161                 1.2310                 1.0686
 Frc consts  --     1.6885                 1.6871                 6.5244
 IR Inten    --    20.8426                36.0694               924.9496
 Raman Activ --     1.7847                 0.8778               185.1380

                   109                    110                    111
                     A                      A                      A
 Frequencies --  3253.4175              3254.7213              3262.2550
 Red. masses --     1.0803                 1.0638                 1.0572
 Frc consts  --     6.7370                 6.6393                 6.6289
 IR Inten    --    62.4013                19.3090                 6.5527
 Raman Activ --    66.1278                42.9366               169.8259

                   112                    113                    114
                     A                      A                      A
 Frequencies --  3267.3023              3271.6503              3273.2976
 Red. masses --     1.0806                 1.0791                 1.0829
 Frc consts  --     6.7968                 6.8051                 6.8362
 IR Inten    --     2.1202                28.1270                 6.7761
 Raman Activ --    23.5577               135.2901               119.5470

                   115                    116                    117
                     A                      A                      A
 Frequencies --  3277.4128              3285.6353              3293.0987
 Red. masses --     1.0840                 1.0838                 1.0863
 Frc consts  --     6.8606                 6.8933                 6.9406
 IR Inten    --    20.5637                 3.3815                16.1346
 Raman Activ --    17.6410                50.6734                 9.0533

                   118                    119                    120
                     A                      A                      A
 Frequencies --  3294.2752              3297.9997              3302.2889
 Red. masses --     1.0804                 1.0780                 1.0876
 Frc consts  --     6.9083                 6.9081                 6.9882
 IR Inten    --   187.7430               311.6710                75.1790
 Raman Activ --    47.3569               178.3665                26.7003

                   121                    122                    123
                     A                      A                      A
 Frequencies --  3306.2146              3308.3424              3318.8170
 Red. masses --     1.0883                 1.1029                 1.1067
 Frc consts  --     7.0089                 7.1120                 7.1819
 IR Inten    --    37.5979                31.8578                40.8776
 Raman Activ --    51.1243                44.0402                54.6182

                   124                    125                    126
                     A                      A                      A
 Frequencies --  3348.7625              3350.2873              3360.4015
 Red. masses --     1.0661                 1.0655                 1.0670
 Frc consts  --     7.0438                 7.0463                 7.0987
 IR Inten    --    42.4497                37.9548                62.8183
 Raman Activ --   128.4450               108.5755               150.5450

                   127                    128                    129
                     A                      A                      A
 Frequencies --  3369.9209              3876.8701              3877.4898
 Red. masses --     1.0675                 1.0674                 1.0673
 Frc consts  --     7.1425                 9.4524                 9.4547
 IR Inten    --    44.0782                91.8355                53.7466
 Raman Activ --   116.3478                74.3039               156.2429

 - Thermochemistry -
 -------------------
 Temperature   298.150 Kelvin.  Pressure   1.00000 Atm.
 Atom     1 has atomic number  8 and mass  15.99491

 Molecular mass:   342.11621 amu.
 Principal axes and moments of inertia in atomic units:
                           1         2         3
     Eigenvalues --  4218.94508********************
           X            0.99996   0.00801  -0.00276
           Y           -0.00802   0.99996  -0.00279
           Z            0.00273   0.00282   0.99999
 This molecule is an asymmetric top.
 Rotational symmetry number  1.
 Warning -- assumption of classical behavior for rotation
           may cause significant error
 Rotational temperatures (Kelvin)      0.02053     0.00691     0.00531
 Rotational constants (GHZ):           0.42777     0.14392     0.11070
    6 imaginary frequencies ignored.
 Zero-point vibrational energy     972830.6 (Joules/Mol)
                                  232.51209 (Kcal/Mol)
 Warning -- explicit consideration of  32 degrees of freedom as
           vibrations may cause significant error
 Vibrational temperatures:     26.76    75.36   105.77   127.60   144.49
          (Kelvin)            175.69   222.98   243.02   278.99   303.50
                              340.83   381.83   390.74   414.02   418.64
                              426.26   456.53   474.10   499.32   524.58
                              559.05   590.76   601.51   636.41   662.30
                              698.08   727.41   747.52   809.82   829.22
                              840.80   863.94   906.14   967.70  1000.68
                             1013.62  1022.23  1026.17  1046.44  1081.80
                             1229.70  1241.18  1299.90  1300.77  1323.79
                             1353.81  1404.90  1421.97  1431.23  1442.69
                             1464.79  1493.92  1516.55  1523.43  1530.73
                             1542.81  1562.34  1567.96  1577.42  1588.38
                             1594.42  1609.22  1620.78  1636.66  1651.64
                             1660.59  1673.24  1691.37  1695.56  1718.03
                             1727.79  1741.02  1755.72  1778.70  1806.19
                             1814.39  1832.53  1839.37  1841.34  1849.33
                             1865.56  1886.35  1905.26  1914.34  1920.06
                             1928.99  1934.69  1942.87  1947.23  1955.59
                             1981.59  1988.50  2005.55  2034.83  2075.23
                             2079.68  2094.68  2106.49  2111.38  2123.10
                             2194.36  4631.47  4680.94  4682.81  4693.65
                             4700.91  4707.17  4709.54  4715.46  4727.29
                             4738.03  4739.72  4745.08  4751.25  4756.90
                             4759.96  4775.03  4818.12  4820.31  4834.86
                             4848.56  5577.94  5578.84

 Zero-point correction=                           0.370532 (Hartree/Particle)
 Thermal correction to Energy=                    0.389608
 Thermal correction to Enthalpy=                  0.390552
 Thermal correction to Gibbs Free Energy=         0.323171
 Sum of electronic and zero-point Energies=          -1297.645002
 Sum of electronic and thermal Energies=             -1297.625926
 Sum of electronic and thermal Enthalpies=           -1297.624982
 Sum of electronic and thermal Free Energies=        -1297.692363

                     E (Thermal)             CV                S
                      KCal/Mol        Cal/Mol-Kelvin    Cal/Mol-Kelvin
 Total                  244.483             77.787            141.815
 Electronic               0.000              0.000              0.000
 Translational            0.889              2.981             43.384
 Rotational               0.889              2.981             35.110
 Vibrational            242.705             71.825             63.321
 Vibration     1          0.593              1.986              6.779
 Vibration     2          0.596              1.977              4.725
 Vibration     3          0.599              1.966              4.057
 Vibration     4          0.602              1.957              3.689
 Vibration     5          0.604              1.949              3.446
 Vibration     6          0.610              1.931              3.067
 Vibration     7          0.620              1.897              2.610
 Vibration     8          0.625              1.881              2.448
 Vibration     9          0.635              1.848              2.190
 Vibration    10          0.643              1.824              2.035
 Vibration    11          0.656              1.784              1.826
 Vibration    12          0.671              1.737              1.626
 Vibration    13          0.675              1.726              1.586
 Vibration    14          0.685              1.696              1.487
 Vibration    15          0.687              1.691              1.468
 Vibration    16          0.690              1.681              1.438
 Vibration    17          0.704              1.641              1.324
 Vibration    18          0.712              1.617              1.262
 Vibration    19          0.725              1.581              1.180
 Vibration    20          0.738              1.545              1.102
 Vibration    21          0.757              1.495              1.006
 Vibration    22          0.775              1.447              0.925
 Vibration    23          0.781              1.431              0.899
 Vibration    24          0.802              1.378              0.819
 Vibration    25          0.818              1.338              0.765
 Vibration    26          0.841              1.283              0.696
 Vibration    27          0.861              1.238              0.644
 Vibration    28          0.875              1.207              0.611
 Vibration    29          0.919              1.112              0.518
 Vibration    30          0.933              1.082              0.492
 Vibration    31          0.941              1.065              0.477
 Vibration    32          0.959              1.031              0.449

 Normal termination of Gaussian 09 at Fri Feb 12 12:02:42 2016.
