 Gaussian 09, Revision B.01,
 Gaussian 09:  EM64L-G09RevB.01 12-Aug-2010

 -------------------------------------------------
 # freq=raman b3lyp/6-31+g(2d,p) geom=connectivity
 -------------------------------------------------

 -----------------
 350 7547/7547.com
 -----------------
 Symbolic Z-matrix:
 Charge =  0 Multiplicity = 1

                         Standard orientation:
 ---------------------------------------------------------------------
 Center     Atomic      Atomic             Coordinates (Angstroms)
 Number     Number       Type             X           Y           Z
 ---------------------------------------------------------------------
      1          8           0        5.063698   -0.471964   -0.469542
      2          6           0        3.824678   -0.046522    0.116763
      3          6           0        3.136768    1.245751   -0.294211
      4          8           0        4.004019    2.384438   -0.194397
      5          1           0        4.938312    2.054356   -0.328558
      6          6           0        1.759398    1.622271    0.226941
      7          8           0        1.186122    2.701663   -0.524935
      8          1           0        0.217951    2.711444   -0.273272
      9          6           0        3.136124   -2.546469    0.160069
     10          8           0        4.297555   -3.074766   -0.496712
     11          1           0        4.336404   -4.073195   -0.486239
     12          6           0        2.746371   -1.098304   -0.089954
     13          8           0        1.591796   -0.724595    0.675050
     14          6           0        0.870605    0.393367    0.136857
     15          8           0       -0.364557    0.430454    0.866073
     16          6           0       -1.528762    0.183072    0.064504
     17          6           0       -2.126818   -1.135190    0.526950
     18          8           0       -1.134459   -2.170877    0.510328
     19          1           0       -0.319899   -1.846804    0.990618
     20          6           0       -3.343317   -1.547059   -0.284600
     21          8           0       -3.705712   -2.908529   -0.008834
     22          1           0       -4.515467   -3.084696   -0.569359
     23          6           0       -2.320860    2.635930   -0.118646
     24          8           0       -1.217517    3.397947    0.390971
     25          1           0       -1.448093    4.365668    0.282909
     26          6           0       -2.598515    1.221318    0.363800
     27          8           0       -3.722609    0.873200   -0.457095
     28          6           0       -4.313810   -0.389311   -0.114749
     29          8           0       -5.503339   -0.728519   -0.840654
     30          1           0       -6.196435   -0.972826   -0.222972
     31          1           0       -3.205678    3.207165    0.070265
     32          1           0       -2.196887    2.582730   -1.180108
     33          1           0       -2.866301    1.213130    1.399717
     34          1           0       -1.288986    0.157938   -0.977981
     35          1           0       -2.443852   -1.007382    1.540881
     36          1           0       -3.042755   -1.529747   -1.311373
     37          1           0       -4.576809   -0.343225    0.921402
     38          1           0        5.670243   -0.741093    0.224196
     39          1           0        2.303118   -3.156132   -0.121555
     40          1           0        3.282970   -2.661900    1.213640
     41          1           0        2.461721   -1.038804   -1.119679
     42          1           0        3.997441    0.021679    1.170519
     43          1           0        2.983376    1.122390   -1.345949
     44          1           0        1.843265    1.917643    1.251939
     45          1           0        0.655218    0.200928   -0.893422
 ---------------------------------------------------------------------

 SCF Done:  E(RB3LYP) =  -1297.96384378     A.U. after   13 cycles

 The electronic state is 1-A.
 Alpha  occ. eigenvalues --  -19.19083 -19.19012 -19.18646 -19.18634 -19.17530
 Alpha  occ. eigenvalues --  -19.16915 -19.16581 -19.15747 -19.14484 -19.14365
 Alpha  occ. eigenvalues --  -19.13615 -10.31307 -10.30249 -10.27010 -10.25965
 Alpha  occ. eigenvalues --  -10.25587 -10.24921 -10.24815 -10.24811 -10.24361
 Alpha  occ. eigenvalues --  -10.24194 -10.23922 -10.23877  -1.09980  -1.09270
 Alpha  occ. eigenvalues --   -1.05838  -1.05044  -1.04661  -1.03834  -1.03159
 Alpha  occ. eigenvalues --   -1.02169  -1.01774  -1.00704  -1.00087  -0.82368
 Alpha  occ. eigenvalues --   -0.80469  -0.79856  -0.78128  -0.72150  -0.70316
 Alpha  occ. eigenvalues --   -0.67111  -0.64894  -0.63589  -0.61928  -0.61825
 Alpha  occ. eigenvalues --   -0.60122  -0.56575  -0.56237  -0.55503  -0.54756
 Alpha  occ. eigenvalues --   -0.53903  -0.53549  -0.53214  -0.51825  -0.50984
 Alpha  occ. eigenvalues --   -0.50799  -0.49692  -0.48990  -0.48735  -0.46749
 Alpha  occ. eigenvalues --   -0.46099  -0.45419  -0.44381  -0.43978  -0.43533
 Alpha  occ. eigenvalues --   -0.42326  -0.42026  -0.41081  -0.40303  -0.40117
 Alpha  occ. eigenvalues --   -0.38311  -0.37986  -0.37589  -0.36470  -0.35527
 Alpha  occ. eigenvalues --   -0.35438  -0.34848  -0.34680  -0.34150  -0.33512
 Alpha  occ. eigenvalues --   -0.33011  -0.31446  -0.31254  -0.30745  -0.30120
 Alpha  occ. eigenvalues --   -0.28686  -0.28288  -0.28112  -0.27073  -0.26864
 Alpha  occ. eigenvalues --   -0.25897
 Alpha virt. eigenvalues --   -0.02361  -0.02204  -0.01730  -0.00251   0.00271
 Alpha virt. eigenvalues --    0.00901   0.01741   0.02345   0.02980   0.03540
 Alpha virt. eigenvalues --    0.03811   0.04299   0.04875   0.05379   0.05488

 Mulliken atomic charges:
              1
     1  O   -0.520235
     2  C   -0.242352
     3  C    0.487237
     4  O   -0.576966
     5  H    0.338691
     6  C   -0.111224
     7  O   -0.541537
     8  H    0.398258
     9  C   -0.272374
    10  O   -0.524738
    11  H    0.347377
    12  C    0.320249
    13  O   -0.296381
    14  C    0.131100
    15  O   -0.252974
    16  C    0.222822
    17  C    0.197016
    18  O   -0.551691
    19  H    0.364827
    20  C   -0.026609
    21  O   -0.528503
    22  H    0.336606
    23  C   -0.300509
    24  O   -0.552831
    25  H    0.359005
    26  C   -0.069653
    27  O   -0.270078
    28  C    0.265515
    29  O   -0.573462
    30  H    0.342929
    31  H    0.146508
    32  H    0.162936
    33  H    0.127231
    34  H    0.118892
    35  H    0.107635
    36  H    0.119394
    37  H    0.111066
    38  H    0.344796
    39  H    0.149947
    40  H    0.139400
    41  H    0.105847
    42  H    0.112391
    43  H    0.112242
    44  H    0.128172
    45  H    0.114029
 Sum of Mulliken atomic charges =   0.00000

 Dipole moment (field-independent basis, Debye):
    X=             -3.2697    Y=             -0.5019    Z=              2.0977  Tot=              3.9170
 Quadrupole moment (field-independent basis, Debye-Ang):
   XX=           -116.0771   YY=           -135.2250   ZZ=           -141.3856
   XY=            -18.2678   XZ=              2.8178   YZ=              3.2468

  Exact polarizability: 230.810  -0.187 199.059   1.956   0.693 144.357
 Approx polarizability: 272.201  -1.724 259.551   3.169   1.635 241.161

 ******    6 imaginary frequencies (negative Signs) ******

                     1                      2                      3
                     A                      A                      A
 Frequencies --  -313.4613              -271.3719              -270.0341
 Red. masses --     1.3720                 1.4020                 1.1994
 Frc consts  --     0.0794                 0.0608                 0.0515
 IR Inten    --    69.8537                33.5000               130.2048
 Raman Activ --     0.7198                 0.5349                 1.2242

                     4                      5                      6
                     A                      A                      A
 Frequencies --  -263.6558               -79.5235               -67.4375
 Red. masses --     1.7331                 6.7114                 6.3980
 Frc consts  --     0.0710                 0.0250                 0.0171
 IR Inten    --     1.9590                 0.4638                 0.1045
 Raman Activ --     0.0709                 0.0398                 0.0675

                     7                      8                      9
                     A                      A                      A
 Frequencies --    36.5930                48.3273                62.1374
 Red. masses --     7.1668                 6.2771                 6.5972
 Frc consts  --     0.0057                 0.0086                 0.0150
 IR Inten    --     0.5877                 1.9688                 0.8143
 Raman Activ --     0.0654                 0.1082                 0.0831

                    10                     11                     12
                     A                      A                      A
 Frequencies --    88.5828                98.6273               138.9964
 Red. masses --     6.5689                 6.5467                 6.3786
 Frc consts  --     0.0304                 0.0375                 0.0726
 IR Inten    --     0.9456                 0.2710                 1.8899
 Raman Activ --     0.1232                 0.1441                 0.2925

                    13                     14                     15
                     A                      A                      A
 Frequencies --   153.2500               183.6758               192.1069
 Red. masses --     5.9247                 5.5243                 6.5574
 Frc consts  --     0.0820                 0.1098                 0.1426
 IR Inten    --     2.9000                 6.6856                 1.1661
 Raman Activ --     0.3753                 0.5187                 0.6671

                    16                     17                     18
                     A                      A                      A
 Frequencies --   212.0893               236.4811               259.4686
 Red. masses --     6.1199                 5.9610                 4.3741
 Frc consts  --     0.1622                 0.1964                 0.1735
 IR Inten    --     1.0919                 4.2183                15.5796
 Raman Activ --     1.0608                 1.5156                 0.2925

                    19                     20                     21
                     A                      A                      A
 Frequencies --   266.6831               279.6392               301.4887
 Red. masses --     5.5892                 5.1578                 4.7124
 Frc consts  --     0.2342                 0.2376                 0.2524
 IR Inten    --     4.1931                 3.1747                 2.7246
 Raman Activ --     0.4347                 0.4258                 0.2406

                    22                     23                     24
                     A                      A                      A
 Frequencies --   305.9310               306.2824               320.2927
 Red. masses --     4.2310                 6.5317                 6.6630
 Frc consts  --     0.2333                 0.3610                 0.4027
 IR Inten    --     1.7790                 2.0148                 7.1603
 Raman Activ --     0.3655                 2.5527                 4.8251

                    25                     26                     27
                     A                      A                      A
 Frequencies --   351.7383               353.2972               366.4861
 Red. masses --     6.0809                 5.0094                 8.4380
 Frc consts  --     0.4433                 0.3684                 0.6677
 IR Inten    --    10.2938                 0.8867                 0.2975
 Raman Activ --     1.7441                 0.8949                 3.5867

                    28                     29                     30
                     A                      A                      A
 Frequencies --   397.1292               417.4698               422.4874
 Red. masses --     6.2139                 5.8002                 4.4886
 Frc consts  --     0.5774                 0.5956                 0.4721
 IR Inten    --     6.9465                 1.1630                12.4833
 Raman Activ --     3.5066                 0.9628                 1.0390

                    31                     32                     33
                     A                      A                      A
 Frequencies --   435.6149               477.5836               488.2926
 Red. masses --     4.9060                 4.4687                 4.4472
 Frc consts  --     0.5485                 0.6005                 0.6247
 IR Inten    --     4.8486                 4.3120                19.1886
 Raman Activ --     4.1542                 3.8789                 0.4895

                    34                     35                     36
                     A                      A                      A
 Frequencies --   509.1056               523.1640               547.3624
 Red. masses --     3.7824                 3.5034                 3.9396
 Frc consts  --     0.5776                 0.5650                 0.6954
 IR Inten    --     8.5310                12.4723                26.2799
 Raman Activ --     3.5507                 3.3614                 1.4100

                    37                     38                     39
                     A                      A                      A
 Frequencies --   565.8087               587.3819               597.3682
 Red. masses --     5.1565                 3.6685                 5.3003
 Frc consts  --     0.9726                 0.7457                 1.1144
 IR Inten    --     2.7485                14.0254                38.6494
 Raman Activ --     1.2204                 0.3802                 2.4251

                    40                     41                     42
                     A                      A                      A
 Frequencies --   624.5031               658.8605               682.1746
 Red. masses --     3.4873                 1.0812                 5.3691
 Frc consts  --     0.8013                 0.2765                 1.4721
 IR Inten    --     9.8173               113.7235                 7.1679
 Raman Activ --     0.2235                 2.0359                 0.3673

                    43                     44                     45
                     A                      A                      A
 Frequencies --   725.3817               726.5765               753.7211
 Red. masses --     1.0676                 1.0818                 1.0841
 Frc consts  --     0.3310                 0.3365                 0.3629
 IR Inten    --    34.2100               157.1414                94.6315
 Raman Activ --     1.3389                 1.8548                 1.5384

                    46                     47                     48
                     A                      A                      A
 Frequencies --   769.9797               791.5665               852.6668
 Red. masses --     1.0750                 1.0791                 1.8020
 Frc consts  --     0.3755                 0.3984                 0.7719
 IR Inten    --   140.2694               123.5214                 0.6752
 Raman Activ --     4.4322                 0.7258                 1.7185

                    49                     50                     51
                     A                      A                      A
 Frequencies --   858.4479               933.7496               951.0597
 Red. masses --     1.7392                 5.7584                 4.8229
 Frc consts  --     0.7551                 2.9581                 2.5702
 IR Inten    --     4.2081               163.0843                43.9372
 Raman Activ --     0.7742                 2.2615                 1.2041

                    52                     53                     54
                     A                      A                      A
 Frequencies --   975.9909               979.6973               991.8705
 Red. masses --     6.4515                 5.7144                 4.7971
 Frc consts  --     3.6208                 3.2315                 2.7806
 IR Inten    --    19.8355               102.6223               158.7373
 Raman Activ --     1.3440                 1.2749                 0.5990

                    55                     56                     57
                     A                      A                      A
 Frequencies --   997.3391              1012.8570              1026.0705
 Red. masses --     5.9067                 5.8833                 6.7306
 Frc consts  --     3.4616                 3.5560                 4.1750
 IR Inten    --   224.3299                70.7275               189.5539
 Raman Activ --     1.3411                 1.4788                 3.2841

                    58                     59                     60
                     A                      A                      A
 Frequencies --  1029.2439              1047.3899              1054.8153
 Red. masses --     7.1804                 6.5570                 5.9730
 Frc consts  --     4.4817                 4.2381                 3.9156
 IR Inten    --   403.8148               124.9814                89.3237
 Raman Activ --     1.5403                 1.7467                 3.4257

                    61                     62                     63
                     A                      A                      A
 Frequencies --  1066.6416              1072.1295              1077.1288
 Red. masses --     3.9578                 3.4042                 3.5105
 Frc consts  --     2.6530                 2.3055                 2.3997
 IR Inten    --     5.6155                15.9762                41.4131
 Raman Activ --     3.7354                13.0289                 5.2262

                    64                     65                     66
                     A                      A                      A
 Frequencies --  1092.2247              1103.1992              1117.2756
 Red. masses --     3.6005                 3.1695                 1.8398
 Frc consts  --     2.5307                 2.2727                 1.3531
 IR Inten    --    29.9885                59.0115                32.3359
 Raman Activ --     6.4951                14.8256                 0.8481

                    67                     68                     69
                     A                      A                      A
 Frequencies --  1126.0151              1130.3568              1137.8159
 Red. masses --     2.5192                 2.9481                 2.4656
 Frc consts  --     1.8819                 2.2193                 1.8807
 IR Inten    --    76.2353                 1.6669                28.4786
 Raman Activ --     5.3949                 7.1610                 4.7244

                    70                     71                     72
                     A                      A                      A
 Frequencies --  1150.6813              1159.3368              1166.6420
 Red. masses --     2.9619                 2.6997                 1.9440
 Frc consts  --     2.3106                 2.1379                 1.5589
 IR Inten    --    55.6411                10.2751                30.7818
 Raman Activ --     3.4190                 3.0161                 3.8797

                    73                     74                     75
                     A                      A                      A
 Frequencies --  1167.6264              1179.6253              1196.9250
 Red. masses --     1.8806                 2.3301                 1.7665
 Frc consts  --     1.5106                 1.9104                 1.4911
 IR Inten    --    24.4048                 5.7022                 6.4242
 Raman Activ --     0.9871                 5.0105                 1.9442

                    76                     77                     78
                     A                      A                      A
 Frequencies --  1209.9898              1219.7145              1241.1596
 Red. masses --     1.4742                 1.3347                 1.2411
 Frc consts  --     1.2716                 1.1699                 1.1264
 IR Inten    --     5.6260                 5.4165                17.6455
 Raman Activ --     2.8386                 1.7816                 2.4511

                    79                     80                     81
                     A                      A                      A
 Frequencies --  1249.6224              1260.7767              1269.5028
 Red. masses --     1.3145                 1.3220                 1.2617
 Frc consts  --     1.2094                 1.2381                 1.1980
 IR Inten    --     2.1338                 9.5800                23.8489
 Raman Activ --     2.3773                 0.3860                 5.2997

                    82                     83                     84
                     A                      A                      A
 Frequencies --  1277.6943              1289.0720              1293.0892
 Red. masses --     1.1713                 1.3064                 1.3237
 Frc consts  --     1.1266                 1.2790                 1.3041
 IR Inten    --    25.3872                12.0473                 6.4762
 Raman Activ --     2.2609                 2.0689                 1.6404

                    85                     86                     87
                     A                      A                      A
 Frequencies --  1300.7548              1306.8797              1310.0761
 Red. masses --     1.2114                 1.2374                 1.3256
 Frc consts  --     1.2076                 1.2452                 1.3404
 IR Inten    --     7.2386                38.0323                15.2311
 Raman Activ --     1.8339                 7.5438                 2.4215

                    88                     89                     90
                     A                      A                      A
 Frequencies --  1311.4482              1332.8739              1344.6853
 Red. masses --     1.2589                 1.1792                 1.2443
 Frc consts  --     1.2756                 1.2343                 1.3256
 IR Inten    --    13.2122                14.1157                23.6937
 Raman Activ --     5.9595                11.8748                 2.3204

                    91                     92                     93
                     A                      A                      A
 Frequencies --  1348.2081              1354.5023              1358.4339
 Red. masses --     1.2572                 1.1206                 1.2594
 Frc consts  --     1.3464                 1.2113                 1.3693
 IR Inten    --    32.2473                36.1762                24.5095
 Raman Activ --     7.3647                 4.8466                 4.3553

                    94                     95                     96
                     A                      A                      A
 Frequencies --  1363.4907              1381.3113              1389.4528
 Red. masses --     1.2456                 1.5436                 1.4452
 Frc consts  --     1.3643                 1.7353                 1.6438
 IR Inten    --     3.8096                 6.7685                 6.6404
 Raman Activ --     1.8140                 2.9812                 2.9872

                    97                     98                     99
                     A                      A                      A
 Frequencies --  1398.2249              1405.4185              1411.6174
 Red. masses --     1.2138                 1.2542                 1.2713
 Frc consts  --     1.3981                 1.4596                 1.4925
 IR Inten    --     4.0198                 2.0113                 2.5350
 Raman Activ --     2.7085                 4.3347                 7.9790

                   100                    101                    102
                     A                      A                      A
 Frequencies --  1435.8731              1440.8667              1457.8560
 Red. masses --     1.3194                 1.3971                 1.3939
 Frc consts  --     1.6027                 1.7089                 1.7454
 IR Inten    --    37.4831                 6.4332                49.7482
 Raman Activ --     2.7270                 0.4860                 2.4158

                   103                    104                    105
                     A                      A                      A
 Frequencies --  1465.8840              1469.7449              1476.2149
 Red. masses --     1.4786                 1.2346                 1.0917
 Frc consts  --     1.8720                 1.5713                 1.4016
 IR Inten    --    53.0916                11.1056                 4.4354
 Raman Activ --     2.0007                 3.3444                 3.4582

                   106                    107                    108
                     A                      A                      A
 Frequencies --  1476.5756              1494.6644              3248.2667
 Red. masses --     1.1967                 1.2933                 1.0788
 Frc consts  --     1.5372                 1.7023                 6.7067
 IR Inten    --     4.1405                55.8640                 8.7453
 Raman Activ --     1.9154                 1.0868                35.1471

                   109                    110                    111
                     A                      A                      A
 Frequencies --  3254.1140              3257.5632              3259.4251
 Red. masses --     1.0595                 1.0828                 1.0791
 Frc consts  --     6.6100                 6.7698                 6.7544
 IR Inten    --    26.8748                12.2256                10.9112
 Raman Activ --   155.4245                41.8171                50.1585

                   112                    113                    114
                     A                      A                      A
 Frequencies --  3259.9896              3263.0136              3273.4381
 Red. masses --     1.0599                 1.0801                 1.0827
 Frc consts  --     6.6367                 6.7755                 6.8352
 IR Inten    --   122.2873                23.0745                38.0864
 Raman Activ --    28.6465               121.9026               100.0485

                   115                    116                    117
                     A                      A                      A
 Frequencies --  3277.2308              3280.9111              3282.6963
 Red. masses --     1.0840                 1.0856                 1.0742
 Frc consts  --     6.8596                 6.8852                 6.8200
 IR Inten    --    69.9387                42.9919               434.5802
 Raman Activ --    29.5439                16.1894               164.9321

                   118                    119                    120
                     A                      A                      A
 Frequencies --  3287.6558              3296.2684              3302.6591
 Red. masses --     1.0843                 1.0838                 1.0875
 Frc consts  --     6.9051                 6.9379                 6.9891
 IR Inten    --    46.1603               123.4452                60.5359
 Raman Activ --   118.7763                27.9077                23.1763

                   121                    122                    123
                     A                      A                      A
 Frequencies --  3308.3574              3317.3059              3356.8178
 Red. masses --     1.1052                 1.1038                 1.0663
 Frc consts  --     7.1274                 7.1565                 7.0792
 IR Inten    --    53.5018                41.0376               186.7548
 Raman Activ --    38.4529                41.6000               117.5513

                   124                    125                    126
                     A                      A                      A
 Frequencies --  3364.5626              3367.0820              3367.7102
 Red. masses --     1.0662                 1.0654                 1.0677
 Frc consts  --     7.1112                 7.1168                 7.1344
 IR Inten    --    31.3223                47.8982                60.4881
 Raman Activ --   101.8384               107.2289               169.4432

                   127                    128                    129
                     A                      A                      A
 Frequencies --  3374.8470              3890.6963              3892.6346
 Red. masses --     1.0680                 1.0678                 1.0675
 Frc consts  --     7.1669                 9.5233                 9.5305
 IR Inten    --    48.5903                95.3371                92.0343
 Raman Activ --   199.6309                77.3340                98.8122

 - Thermochemistry -
 -------------------
 Temperature   298.150 Kelvin.  Pressure   1.00000 Atm.
 Atom     1 has atomic number  8 and mass  15.99491

 Molecular mass:   342.11621 amu.
 Principal axes and moments of inertia in atomic units:
                           1         2         3
     Eigenvalues --  4537.49373********************
           X            0.99996  -0.00873  -0.00010
           Y            0.00873   0.99996  -0.00028
           Z            0.00010   0.00028   1.00000
 This molecule is an asymmetric top.
 Rotational symmetry number  1.
 Warning -- assumption of classical behavior for rotation
           may cause significant error
 Rotational temperatures (Kelvin)      0.01909     0.00700     0.00531
 Rotational constants (GHZ):           0.39774     0.14594     0.11057
    6 imaginary frequencies ignored.
 Zero-point vibrational energy     975240.3 (Joules/Mol)
                                  233.08804 (Kcal/Mol)
 Warning -- explicit consideration of  33 degrees of freedom as
           vibrations may cause significant error
 Vibrational temperatures:     52.65    69.53    89.40   127.45   141.90
          (Kelvin)            199.98   220.49   264.27   276.40   305.15
                              340.24   373.32   383.70   402.34   433.77
                              440.17   440.67   460.83   506.07   508.32
                              527.29   571.38   600.65   607.86   626.75
                              687.14   702.54   732.49   752.72   787.53
                              814.07   845.11   859.48   898.52   947.95
                              981.50  1043.66  1045.38  1084.44  1107.83
                             1138.89  1226.80  1235.11  1343.46  1368.36
                             1404.23  1409.56  1427.08  1434.95  1457.27
                             1476.28  1480.85  1506.96  1517.64  1534.66
                             1542.55  1549.75  1571.47  1587.26  1607.51
                             1620.08  1626.33  1637.06  1655.57  1668.03
                             1678.54  1679.95  1697.22  1722.11  1740.90
                             1754.89  1785.75  1797.93  1813.97  1826.53
                             1838.31  1854.68  1860.46  1871.49  1880.31
                             1884.90  1886.88  1917.71  1934.70  1939.77
                             1948.82  1954.48  1961.76  1987.40  1999.11
                             2011.73  2022.08  2031.00  2065.90  2073.08
                             2097.53  2109.08  2114.63  2123.94  2124.46
                             2150.49  4673.53  4681.94  4686.90  4689.58
                             4690.39  4694.74  4709.74  4715.20  4720.49
                             4723.06  4730.20  4742.59  4751.78  4759.98
                             4772.86  4829.71  4840.85  4844.47  4845.38
                             4855.65  5597.84  5600.63

 Zero-point correction=                           0.371449 (Hartree/Particle)
 Thermal correction to Energy=                    0.390685
 Thermal correction to Enthalpy=                  0.391630
 Thermal correction to Gibbs Free Energy=         0.324414
 Sum of electronic and zero-point Energies=          -1297.592394
 Sum of electronic and thermal Energies=             -1297.573158
 Sum of electronic and thermal Enthalpies=           -1297.572214
 Sum of electronic and thermal Free Energies=        -1297.639430

                     E (Thermal)             CV                S
                      KCal/Mol        Cal/Mol-Kelvin    Cal/Mol-Kelvin
 Total                  245.159             78.163            141.467
 Electronic               0.000              0.000              0.000
 Translational            0.889              2.981             43.384
 Rotational               0.889              2.981             35.170
 Vibrational            243.381             72.201             62.912
 Vibration     1          0.594              1.982              5.435
 Vibration     2          0.595              1.978              4.885
 Vibration     3          0.597              1.972              4.388
 Vibration     4          0.601              1.957              3.691
 Vibration     5          0.604              1.950              3.481
 Vibration     6          0.615              1.914              2.818
 Vibration     7          0.619              1.899              2.631
 Vibration     8          0.631              1.862              2.291
 Vibration     9          0.634              1.851              2.207
 Vibration    10          0.643              1.822              2.026
 Vibration    11          0.655              1.785              1.829
 Vibration    12          0.668              1.747              1.665
 Vibration    13          0.672              1.734              1.618
 Vibration    14          0.680              1.711              1.536
 Vibration    15          0.693              1.671              1.409
 Vibration    16          0.696              1.662              1.384
 Vibration    17          0.697              1.662              1.382
 Vibration    18          0.706              1.635              1.309
 Vibration    19          0.728              1.572              1.158
 Vibration    20          0.729              1.568              1.151
 Vibration    21          0.739              1.541              1.094
 Vibration    22          0.764              1.476              0.973
 Vibration    23          0.781              1.432              0.901
 Vibration    24          0.785              1.421              0.884
 Vibration    25          0.796              1.393              0.841
 Vibration    26          0.834              1.300              0.717
 Vibration    27          0.844              1.276              0.688
 Vibration    28          0.864              1.230              0.636
 Vibration    29          0.878              1.199              0.603
 Vibration    30          0.903              1.145              0.550
 Vibration    31          0.922              1.105              0.512
 Vibration    32          0.945              1.059              0.472
 Vibration    33          0.955              1.037              0.454

 Normal termination of Gaussian 09 at Fri Mar 25 21:40:56 2016.
