 Gaussian 09, Revision B.01,
 Gaussian 09:  EM64L-G09RevB.01 12-Aug-2010

 -------------------------------------------------
 # freq=raman b3lyp/6-31+g(2d,p) geom=connectivity
 -------------------------------------------------

 -----------------
 493 5000/5000.com
 -----------------
 Symbolic Z-matrix:
 Charge =  0 Multiplicity = 1

                         Standard orientation:
 ---------------------------------------------------------------------
 Center     Atomic      Atomic             Coordinates (Angstroms)
 Number     Number       Type             X           Y           Z
 ---------------------------------------------------------------------
      1          8           0       -4.964321   -0.505291    0.106385
      2          6           0       -3.622995   -0.116722   -0.221292
      3          6           0       -3.177159    1.214825    0.359665
      4          8           0       -4.148824    2.254816    0.173906
      5          1           0       -5.022069    1.771554    0.114761
      6          6           0       -1.847778    1.615696   -0.259668
      7          8           0       -1.337230    2.871297    0.209318
      8          1           0       -0.436062    3.021627   -0.195094
      9          6           0       -2.985966   -2.599853   -0.040212
     10          8           0       -4.234462   -3.161291    0.389159
     11          1           0       -4.280485   -4.141407    0.195334
     12          6           0       -2.626722   -1.155255    0.268746
     13          8           0       -1.314307   -0.808330   -0.196521
     14          6           0       -0.846669    0.521278    0.071045
     15          8           0        0.357688    0.730592   -0.680845
     16          6           0        1.520193    0.220811   -0.011191
     17          6           0        1.930202   -1.177992   -0.442442
     18          8           0        0.949373   -2.168985   -0.102156
     19          1           0        0.070277   -1.867813   -0.470387
     20          6           0        3.296920   -1.626867    0.048840
     21          8           0        3.869978   -2.795293   -0.556292
     22          1           0        4.671716   -3.146401   -0.073475
     23          6           0        2.260837    2.621425    0.237938
     24          8           0        1.220425    3.337866   -0.443298
     25          1           0        1.315871    4.326989   -0.329457
     26          6           0        2.623011    1.234745   -0.268252
     27          8           0        3.832859    0.872328    0.413369
     28          6           0        4.246818   -0.440712    0.008896
     29          8           0        5.297129   -0.683191    0.956042
     30          1           0        6.117525   -0.853507    0.487488
     31          1           0        4.673281   -0.378264   -0.970456
     32          1           0        3.169696   -1.869477    1.083178
     33          1           0        1.984584   -1.158889   -1.510888
     34          1           0        1.320119    0.201026    1.039751
     35          1           0        2.814565    1.284521   -1.319788
     36          1           0        3.145867    3.221615    0.200586
     37          1           0       -2.210941   -3.209348    0.375422
     38          1           0       -2.943800   -2.710777   -1.103611
     39          1           0       -2.603504   -1.072633    1.335299
     40          1           0       -5.460907   -0.653799   -0.701667
     41          1           0       -3.546195   -0.057037   -1.286862
     42          1           0       -3.028108    1.084603    1.411200
     43          1           0       -1.964504    1.667011   -1.322043
     44          1           0       -0.608880    0.589201    1.112075
     45          1           0        1.971315    2.526781    1.263667
 ---------------------------------------------------------------------

 SCF Done:  E(RB3LYP) =  -1297.98415562     A.U. after   13 cycles

 The electronic state is 1-A.
 Alpha  occ. eigenvalues --  -19.18685 -19.18571 -19.18535 -19.18091 -19.17301
 Alpha  occ. eigenvalues --  -19.16960 -19.16836 -19.16246 -19.14919 -19.13570
 Alpha  occ. eigenvalues --  -19.13318 -10.30406 -10.30046 -10.26030 -10.25791
 Alpha  occ. eigenvalues --  -10.25456 -10.25400 -10.25210 -10.25141 -10.24568
 Alpha  occ. eigenvalues --  -10.24419 -10.24247 -10.24197  -1.10130  -1.08977
 Alpha  occ. eigenvalues --   -1.05700  -1.05196  -1.04244  -1.03458  -1.02610
 Alpha  occ. eigenvalues --   -1.02249  -1.01863  -1.00638  -0.99941  -0.82103
 Alpha  occ. eigenvalues --   -0.80928  -0.79358  -0.78564  -0.72138  -0.70141
 Alpha  occ. eigenvalues --   -0.67192  -0.64785  -0.63633  -0.62654  -0.61395
 Alpha  occ. eigenvalues --   -0.60149  -0.56376  -0.55915  -0.55420  -0.54745
 Alpha  occ. eigenvalues --   -0.53924  -0.53350  -0.52491  -0.52156  -0.51295
 Alpha  occ. eigenvalues --   -0.50533  -0.50332  -0.49949  -0.48605  -0.46473
 Alpha  occ. eigenvalues --   -0.46180  -0.45298  -0.44394  -0.43637  -0.43029
 Alpha  occ. eigenvalues --   -0.42715  -0.42169  -0.41202  -0.39849  -0.39263
 Alpha  occ. eigenvalues --   -0.38880  -0.37855  -0.37151  -0.36595  -0.36001
 Alpha  occ. eigenvalues --   -0.35354  -0.34689  -0.34372  -0.33737  -0.33435
 Alpha  occ. eigenvalues --   -0.32314  -0.31110  -0.30810  -0.30591  -0.30144
 Alpha  occ. eigenvalues --   -0.29689  -0.28530  -0.28207  -0.27311  -0.26843
 Alpha  occ. eigenvalues --   -0.26408
 Alpha virt. eigenvalues --   -0.02258  -0.01693  -0.01647  -0.00282   0.00333
 Alpha virt. eigenvalues --    0.00804   0.01754   0.02439   0.02928   0.03625
 Alpha virt. eigenvalues --    0.03874   0.04380   0.05066   0.05297   0.05637

 Mulliken atomic charges:
              1
     1  O   -0.540583
     2  C   -0.125932
     3  C    0.182960
     4  O   -0.553062
     5  H    0.343734
     6  C   -0.068145
     7  O   -0.572474
     8  H    0.419522
     9  C   -0.194647
    10  O   -0.520091
    11  H    0.341516
    12  C    0.165418
    13  O   -0.302265
    14  C    0.210198
    15  O   -0.199744
    16  C    0.464529
    17  C    0.064445
    18  O   -0.529557
    19  H    0.368857
    20  C   -0.036087
    21  O   -0.552716
    22  H    0.340990
    23  C   -0.209129
    24  O   -0.572754
    25  H    0.362708
    26  C   -0.140017
    27  O   -0.235560
    28  C    0.153973
    29  O   -0.527919
    30  H    0.329177
    31  H    0.123971
    32  H    0.137608
    33  H    0.118803
    34  H    0.111976
    35  H    0.125474
    36  H    0.146042
    37  H    0.154242
    38  H    0.136436
    39  H    0.111984
    40  H    0.343958
    41  H    0.114010
    42  H    0.112105
    43  H    0.122672
    44  H    0.116683
    45  H    0.156691
 Sum of Mulliken atomic charges =   0.00000

 Dipole moment (field-independent basis, Debye):
    X=              2.3267    Y=             -1.0197    Z=             -2.4406  Tot=              3.5228
 Quadrupole moment (field-independent basis, Debye-Ang):
   XX=           -120.6632   YY=           -133.9643   ZZ=           -140.2941
   XY=             16.6285   XZ=              6.1801   YZ=             -0.9948

  Exact polarizability: 231.104  -1.124 200.291   1.830   0.483 143.695
 Approx polarizability: 271.594   0.189 261.668   2.314  -0.623 239.552

 ******    7 imaginary frequencies (negative Signs) ******

                     1                      2                      3
                     A                      A                      A
 Frequencies --  -316.0456              -263.1805              -244.7903
 Red. masses --     1.7269                 1.1809                 1.7875
 Frc consts  --     0.1016                 0.0482                 0.0631
 IR Inten    --     9.9797               107.3779                 4.7933
 Raman Activ --     0.0786                 1.0761                 0.0272

                     4                      5                      6
                     A                      A                      A
 Frequencies --  -208.9941               -85.2434               -76.7933
 Red. masses --     1.2526                 6.6812                 5.9208
 Frc consts  --     0.0322                 0.0286                 0.0206
 IR Inten    --    89.4271                 1.5897                 0.1123
 Raman Activ --     0.6872                 0.0902                 0.0338

                     7                      8                      9
                     A                      A                      A
 Frequencies --   -12.6712                41.3005                67.6483
 Red. masses --     6.9030                 6.2388                 6.2028
 Frc consts  --     0.0007                 0.0063                 0.0167
 IR Inten    --     0.1996                 2.7481                 1.1933
 Raman Activ --     0.0111                 0.0371                 0.0501

                    10                     11                     12
                     A                      A                      A
 Frequencies --    83.1920               100.7516               109.7448
 Red. masses --     6.0617                 6.3088                 5.6448
 Frc consts  --     0.0247                 0.0377                 0.0401
 IR Inten    --     1.1376                 0.7724                 5.4640
 Raman Activ --     0.1954                 0.3636                 0.0848

                    13                     14                     15
                     A                      A                      A
 Frequencies --   155.8807               183.5673               199.4130
 Red. masses --     6.3072                 6.3580                 7.1130
 Frc consts  --     0.0903                 0.1262                 0.1667
 IR Inten    --     5.7146                 1.5220                 0.8924
 Raman Activ --     0.3256                 0.5946                 0.2823

                    16                     17                     18
                     A                      A                      A
 Frequencies --   215.8941               235.3752               253.6627
 Red. masses --     6.7118                 5.5840                 4.2608
 Frc consts  --     0.1843                 0.1823                 0.1615
 IR Inten    --     1.6255                 2.5568                18.2761
 Raman Activ --     3.0626                 0.1739                 0.1866

                    19                     20                     21
                     A                      A                      A
 Frequencies --   273.1363               288.1289               303.5550
 Red. masses --     5.1536                 4.8574                 5.2610
 Frc consts  --     0.2265                 0.2376                 0.2856
 IR Inten    --     3.8256                 0.6078                 4.9276
 Raman Activ --     0.3099                 0.0751                 0.3386

                    22                     23                     24
                     A                      A                      A
 Frequencies --   308.6542               312.1306               328.1599
 Red. masses --     5.1709                 6.4113                 5.8134
 Frc consts  --     0.2902                 0.3680                 0.3689
 IR Inten    --     1.6033                 5.6393                 1.4851
 Raman Activ --     0.8608                 4.6956                 2.5815

                    25                     26                     27
                     A                      A                      A
 Frequencies --   338.9755               354.0414               390.2060
 Red. masses --     6.9660                 5.0576                 4.2295
 Frc consts  --     0.4716                 0.3735                 0.3794
 IR Inten    --     7.1162                 4.9354                 6.7742
 Raman Activ --     2.9449                 0.5476                 0.2919

                    28                     29                     30
                     A                      A                      A
 Frequencies --   405.9686               418.9264               429.1683
 Red. masses --     5.9676                 6.7976                 4.8991
 Frc consts  --     0.5795                 0.7029                 0.5316
 IR Inten    --    20.3164                 2.2618                 2.0901
 Raman Activ --     2.1590                 8.3007                 1.0277

                    31                     32                     33
                     A                      A                      A
 Frequencies --   449.0810               480.8232               482.8904
 Red. masses --     5.4682                 4.6190                 4.1122
 Frc consts  --     0.6497                 0.6292                 0.5650
 IR Inten    --     3.0450                 3.5699                14.2800
 Raman Activ --     3.4487                 1.4721                 3.2136

                    34                     35                     36
                     A                      A                      A
 Frequencies --   506.2956               539.1714               561.3825
 Red. masses --     4.2560                 3.2589                 4.0903
 Frc consts  --     0.6428                 0.5582                 0.7595
 IR Inten    --     7.5998                 3.3968                 6.7330
 Raman Activ --     1.6806                 3.3744                 1.4954

                    37                     38                     39
                     A                      A                      A
 Frequencies --   580.1453               594.0674               612.0987
 Red. masses --     3.1123                 6.1583                 4.4461
 Frc consts  --     0.6172                 1.2805                 0.9815
 IR Inten    --    50.4531                 8.5031                 5.2994
 Raman Activ --     0.6988                 0.8295                 0.5398

                    40                     41                     42
                     A                      A                      A
 Frequencies --   640.5207               667.9428               677.1466
 Red. masses --     4.2901                 1.0531                 1.4458
 Frc consts  --     1.0370                 0.2768                 0.3906
 IR Inten    --    32.4278               108.9647                59.7080
 Raman Activ --     1.2777                 2.0712                 0.7709

                    43                     44                     45
                     A                      A                      A
 Frequencies --   680.4373               708.4258               748.2215
 Red. masses --     2.2572                 1.0823                 1.0711
 Frc consts  --     0.6157                 0.3200                 0.3533
 IR Inten    --    51.7077               107.0958                81.3254
 Raman Activ --     1.5471                 1.8627                 1.1086

                    46                     47                     48
                     A                      A                      A
 Frequencies --   760.7271               827.8091               853.6239
 Red. masses --     1.1073                 1.1205                 1.8693
 Frc consts  --     0.3775                 0.4524                 0.8025
 IR Inten    --   184.9913                83.6654                 1.7981
 Raman Activ --     3.7563                 1.1771                 0.7065

                    49                     50                     51
                     A                      A                      A
 Frequencies --   865.8737               935.0623               958.9596
 Red. masses --     1.5910                 6.2955                 5.5200
 Frc consts  --     0.7028                 3.2431                 2.9908
 IR Inten    --    10.8756               171.1746                95.6109
 Raman Activ --     0.3759                 2.4159                 0.5147

                    52                     53                     54
                     A                      A                      A
 Frequencies --   965.1542               972.4328               983.2152
 Red. masses --     6.9870                 5.0043                 5.3677
 Frc consts  --     3.8347                 2.7881                 3.0573
 IR Inten    --    96.2769                72.4212                62.9149
 Raman Activ --     1.8818                 0.4329                 1.5441

                    55                     56                     57
                     A                      A                      A
 Frequencies --   993.3589              1006.6265              1022.0128
 Red. masses --     6.1460                 5.8239                 5.8764
 Frc consts  --     3.5732                 3.4769                 3.6164
 IR Inten    --   328.6592                79.8182               161.2887
 Raman Activ --     1.3032                 1.9407                 1.5555

                    58                     59                     60
                     A                      A                      A
 Frequencies --  1027.7772              1049.8537              1059.5781
 Red. masses --     6.1672                 7.1664                 4.0917
 Frc consts  --     3.8383                 4.6538                 2.7066
 IR Inten    --   272.8594               100.6202                25.6818
 Raman Activ --     1.7812                 3.8317                 4.2706

                    61                     62                     63
                     A                      A                      A
 Frequencies --  1067.0999              1073.3774              1081.2356
 Red. masses --     3.8151                 4.9407                 6.0369
 Frc consts  --     2.5596                 3.3539                 4.1582
 IR Inten    --    52.9152                70.2542                 6.9634
 Raman Activ --    11.3050                18.6246                 3.7822

                    64                     65                     66
                     A                      A                      A
 Frequencies --  1105.9088              1108.5426              1117.3226
 Red. masses --     3.3480                 2.8335                 2.5214
 Frc consts  --     2.4125                 2.0515                 1.8546
 IR Inten    --    63.1526                42.5734                26.4177
 Raman Activ --     3.3125                 2.3774                11.7447

                    67                     68                     69
                     A                      A                      A
 Frequencies --  1124.1440              1133.3218              1139.9603
 Red. masses --     2.7783                 2.5361                 2.5638
 Frc consts  --     2.0686                 1.9192                 1.9630
 IR Inten    --    19.0017                 3.2631                99.3015
 Raman Activ --     2.3001                 3.3295                 8.0634

                    70                     71                     72
                     A                      A                      A
 Frequencies --  1154.6164              1159.8649              1165.8751
 Red. masses --     3.1061                 1.8509                 1.6303
 Frc consts  --     2.4397                 1.4670                 1.3056
 IR Inten    --     2.1473                 4.8816                 2.9569
 Raman Activ --     4.2247                 3.1366                 3.8759

                    73                     74                     75
                     A                      A                      A
 Frequencies --  1171.5380              1177.5361              1187.4518
 Red. masses --     1.7167                 1.9770                 1.8211
 Frc consts  --     1.3882                 1.6151                 1.5129
 IR Inten    --     1.6839                 2.9614                24.2751
 Raman Activ --     1.0927                 0.8739                 2.3088

                    76                     77                     78
                     A                      A                      A
 Frequencies --  1209.1739              1217.0707              1238.3139
 Red. masses --     1.3867                 1.3587                 1.2799
 Frc consts  --     1.1945                 1.1858                 1.1563
 IR Inten    --    13.0570                 4.2375                10.2722
 Raman Activ --     3.8087                 1.2923                 1.7476

                    79                     80                     81
                     A                      A                      A
 Frequencies --  1242.7751              1262.7907              1272.2303
 Red. masses --     1.3042                 1.2102                 1.1964
 Frc consts  --     1.1868                 1.1371                 1.1410
 IR Inten    --     6.5590                18.4760                22.9938
 Raman Activ --     1.4455                 0.7663                 0.2607

                    82                     83                     84
                     A                      A                      A
 Frequencies --  1279.2880              1285.1750              1288.1369
 Red. masses --     1.1884                 1.2250                 1.2613
 Frc consts  --     1.1459                 1.1920                 1.2331
 IR Inten    --     7.8593                11.0137                 8.0246
 Raman Activ --     4.9292                 5.5272                 0.6718

                    85                     86                     87
                     A                      A                      A
 Frequencies --  1294.4235              1303.5674              1305.8251
 Red. masses --     1.2710                 1.2563                 1.2337
 Frc consts  --     1.2547                 1.2578                 1.2395
 IR Inten    --     9.2448                 7.4604                51.2253
 Raman Activ --     1.8408                 2.6745                 4.3012

                    88                     89                     90
                     A                      A                      A
 Frequencies --  1315.0675              1321.7960              1331.7329
 Red. masses --     1.2424                 1.2235                 1.2534
 Frc consts  --     1.2659                 1.2594                 1.3097
 IR Inten    --     8.2719                 5.7522                35.3898
 Raman Activ --     4.5612                12.7312                 2.4019

                    91                     92                     93
                     A                      A                      A
 Frequencies --  1342.5910              1344.6419              1347.8836
 Red. masses --     1.2593                 1.2321                 1.2812
 Frc consts  --     1.3374                 1.3126                 1.3715
 IR Inten    --    22.0110                15.0785                44.4459
 Raman Activ --     1.6430                 0.9821                 3.2761

                    94                     95                     96
                     A                      A                      A
 Frequencies --  1356.4861              1367.5422              1380.0967
 Red. masses --     1.2248                 1.6300                 1.5268
 Frc consts  --     1.3279                 1.7960                 1.7133
 IR Inten    --    29.3797                 6.1651                12.3943
 Raman Activ --     2.8318                 6.0864                 6.4658

                    97                     98                     99
                     A                      A                      A
 Frequencies --  1390.7279              1399.7068              1407.7353
 Red. masses --     1.4962                 1.3800                 1.4289
 Frc consts  --     1.7050                 1.5930                 1.6684
 IR Inten    --     7.8584                 2.3590                10.6204
 Raman Activ --     7.2358                 2.5588                 7.9784

                   100                    101                    102
                     A                      A                      A
 Frequencies --  1408.6688              1449.7261              1452.7705
 Red. masses --     1.3433                 1.3738                 1.3992
 Frc consts  --     1.5705                 1.7012                 1.7399
 IR Inten    --     9.4761                49.6899                 7.1749
 Raman Activ --     3.1873                 1.0037                 1.9484

                   103                    104                    105
                     A                      A                      A
 Frequencies --  1465.7477              1473.0021              1477.0484
 Red. masses --     1.3501                 1.0825                 1.0993
 Frc consts  --     1.7090                 1.3838                 1.4131
 IR Inten    --    48.0195                 3.9936                 1.7879
 Raman Activ --     0.9372                 4.4098                 3.3593

                   106                    107                    108
                     A                      A                      A
 Frequencies --  1512.8914              1515.0483              3252.2050
 Red. masses --     1.2370                 1.2513                 1.0648
 Frc consts  --     1.6681                 1.6922                 6.6356
 IR Inten    --    25.5878                51.0778               435.2977
 Raman Activ --     1.9311                 1.2077               105.3641

                   109                    110                    111
                     A                      A                      A
 Frequencies --  3252.5963              3261.5200              3263.3670
 Red. masses --     1.0618                 1.0790                 1.0801
 Frc consts  --     6.6183                 6.7624                 6.7773
 IR Inten    --   166.0386                61.1820                47.0993
 Raman Activ --    55.7009                19.5519                58.9180

                   112                    113                    114
                     A                      A                      A
 Frequencies --  3267.2686              3268.7039              3271.1668
 Red. masses --     1.0650                 1.0805                 1.0825
 Frc consts  --     6.6982                 6.8016                 6.8244
 IR Inten    --   144.8507                22.0154                 7.7320
 Raman Activ --   333.6905                21.6735                57.4780

                   115                    116                    117
                     A                      A                      A
 Frequencies --  3273.9206              3277.1049              3281.0378
 Red. masses --     1.0831                 1.0817                 1.0859
 Frc consts  --     6.8399                 6.8446                 6.8873
 IR Inten    --    11.4917                12.5050                 6.1253
 Raman Activ --    37.4268               200.6423                17.1583

                   118                    119                    120
                     A                      A                      A
 Frequencies --  3284.9914              3294.1682              3296.3219
 Red. masses --     1.0845                 1.0867                 1.0870
 Frc consts  --     6.8955                 6.9482                 6.9587
 IR Inten    --     2.5780                31.4598               139.6845
 Raman Activ --    16.0768                 9.7729                 9.3692

                   121                    122                    123
                     A                      A                      A
 Frequencies --  3305.3692              3311.8276              3319.3112
 Red. masses --     1.1011                 1.0694                 1.1060
 Frc consts  --     7.0880                 6.9107                 7.1795
 IR Inten    --    69.5184               623.8709                46.9711
 Raman Activ --    18.5688               148.7194                36.8646

                   124                    125                    126
                     A                      A                      A
 Frequencies --  3359.4808              3364.9086              3368.9947
 Red. masses --     1.0654                 1.0676                 1.0678
 Frc consts  --     7.0842                 7.1222                 7.1406
 IR Inten    --    37.2763                57.8653                64.5331
 Raman Activ --    80.0000               189.0538               155.1269

                   127                    128                    129
                     A                      A                      A
 Frequencies --  3376.7214              3888.9070              3889.7869
 Red. masses --     1.0671                 1.0674                 1.0677
 Frc consts  --     7.1688                 9.5113                 9.5186
 IR Inten    --    54.8512                67.5086                75.1519
 Raman Activ --   161.7045               109.2879                89.0063

 - Thermochemistry -
 -------------------
 Temperature   298.150 Kelvin.  Pressure   1.00000 Atm.
 Atom     1 has atomic number  8 and mass  15.99491

 Molecular mass:   342.11621 amu.
 Principal axes and moments of inertia in atomic units:
                           1         2         3
     Eigenvalues --  4538.75995********************
           X            0.99997   0.00799   0.00078
           Y           -0.00799   0.99997   0.00122
           Z           -0.00077  -0.00122   1.00000
 This molecule is an asymmetric top.
 Rotational symmetry number  1.
 Warning -- assumption of classical behavior for rotation
           may cause significant error
 Rotational temperatures (Kelvin)      0.01908     0.00721     0.00538
 Rotational constants (GHZ):           0.39763     0.15020     0.11217
    7 imaginary frequencies ignored.
 Zero-point vibrational energy     974749.3 (Joules/Mol)
                                  232.97067 (Kcal/Mol)
 Warning -- explicit consideration of  32 degrees of freedom as
           vibrations may cause significant error
 Vibrational temperatures:     59.42    97.33   119.69   144.96   157.90
          (Kelvin)            224.28   264.11   286.91   310.62   338.65
                              364.96   392.98   414.55   436.75   444.08
                              449.09   472.15   487.71   509.39   561.42
                              584.10   602.74   617.48   646.13   691.80
                              694.77   728.45   775.75   807.70   834.70
                              854.73   880.67   921.57   961.02   974.26
                              979.00  1019.27  1076.52  1094.52  1191.03
                             1228.17  1245.80  1345.34  1379.73  1388.64
                             1399.11  1414.63  1429.22  1448.31  1470.45
                             1478.74  1510.50  1524.49  1535.32  1544.35
                             1555.65  1591.15  1594.94  1607.58  1617.39
                             1630.60  1640.15  1661.23  1668.78  1677.43
                             1685.58  1694.21  1708.48  1739.73  1751.09
                             1781.66  1788.07  1816.87  1830.45  1840.61
                             1849.08  1853.34  1862.38  1875.54  1878.79
                             1892.09  1901.77  1916.06  1931.69  1934.64
                             1939.30  1951.68  1967.59  1985.65  2000.94
                             2013.86  2025.41  2026.76  2085.83  2090.21
                             2108.88  2119.32  2125.14  2176.71  2179.81
                             4679.19  4679.75  4692.59  4695.25  4700.86
                             4702.93  4706.47  4710.44  4715.02  4720.68
                             4726.36  4739.57  4742.67  4755.68  4764.98
                             4775.74  4833.54  4841.35  4847.23  4858.34
                             5595.26  5596.53

 Zero-point correction=                           0.371262 (Hartree/Particle)
 Thermal correction to Energy=                    0.389583
 Thermal correction to Enthalpy=                  0.390527
 Thermal correction to Gibbs Free Energy=         0.325826
 Sum of electronic and zero-point Energies=          -1297.612893
 Sum of electronic and thermal Energies=             -1297.594573
 Sum of electronic and thermal Enthalpies=           -1297.593629
 Sum of electronic and thermal Free Energies=        -1297.658330

                     E (Thermal)             CV                S
                      KCal/Mol        Cal/Mol-Kelvin    Cal/Mol-Kelvin
 Total                  244.467             76.003            136.175
 Electronic               0.000              0.000              0.000
 Translational            0.889              2.981             43.384
 Rotational               0.889              2.981             35.127
 Vibrational            242.689             70.041             57.664
 Vibration     1          0.594              1.981              5.196
 Vibration     2          0.598              1.970              4.221
 Vibration     3          0.600              1.961              3.814
 Vibration     4          0.604              1.949              3.440
 Vibration     5          0.606              1.941              3.273
 Vibration     6          0.620              1.896              2.599
 Vibration     7          0.631              1.862              2.292
 Vibration     8          0.638              1.841              2.139
 Vibration     9          0.645              1.817              1.993
 Vibration    10          0.655              1.787              1.838
 Vibration    11          0.665              1.757              1.705
 Vibration    12          0.676              1.723              1.576
 Vibration    13          0.685              1.696              1.485
 Vibration    14          0.695              1.667              1.397
 Vibration    15          0.698              1.657              1.370
 Vibration    16          0.700              1.651              1.351
 Vibration    17          0.711              1.619              1.269
 Vibration    18          0.719              1.598              1.217
 Vibration    19          0.730              1.567              1.148
 Vibration    20          0.758              1.491              0.999
 Vibration    21          0.771              1.457              0.941
 Vibration    22          0.782              1.429              0.896
 Vibration    23          0.791              1.407              0.861
 Vibration    24          0.808              1.363              0.799
 Vibration    25          0.837              1.293              0.708
 Vibration    26          0.839              1.288              0.702
 Vibration    27          0.862              1.236              0.643
 Vibration    28          0.894              1.163              0.567
 Vibration    29          0.917              1.115              0.521
 Vibration    30          0.937              1.074              0.485
 Vibration    31          0.952              1.044              0.460
 Vibration    32          0.971              1.006              0.429

 Normal termination of Gaussian 09 at Thu Mar 31 02:58:21 2016.
