 Gaussian 09, Revision B.01,
 Gaussian 09:  EM64L-G09RevB.01 12-Aug-2010

 -------------------------------------------------
 # freq=raman b3lyp/6-31+g(2d,p) geom=connectivity
 -------------------------------------------------

 -----------------
 280 9006/9006.com
 -----------------
 Symbolic Z-matrix:
 Charge =  0 Multiplicity = 1

                         Standard orientation:
 ---------------------------------------------------------------------
 Center     Atomic      Atomic             Coordinates (Angstroms)
 Number     Number       Type             X           Y           Z
 ---------------------------------------------------------------------
      1          8           0        5.073522   -0.361449   -0.388365
      2          6           0        3.840323   -0.043478    0.273986
      3          6           0        3.229921    1.200083   -0.350395
      4          8           0        4.141393    2.294692   -0.172935
      5          1           0        5.040189    1.890898   -0.339769
      6          6           0        1.827622    1.615245    0.066688
      7          8           0        1.237928    2.746147   -0.590968
      8          1           0        0.294765    2.759340   -0.256561
      9          6           0        3.094395   -2.525214    0.368989
     10          8           0        4.156977   -3.249829   -0.268870
     11          1           0        4.125511   -4.249638   -0.277352
     12          6           0        2.809813   -1.102382   -0.082876
     13          8           0        1.501245   -0.853508    0.451799
     14          6           0        0.940019    0.384321   -0.008373
     15          8           0       -0.294662    0.478545    0.718484
     16          6           0       -1.533580    0.183275    0.057312
     17          6           0       -2.074729   -1.215821    0.302627
     18          8           0       -1.154655   -2.274038   -0.000733
     19          1           0       -0.320978   -1.843019    0.343894
     20          6           0       -3.455663   -1.455073   -0.286888
     21          8           0       -3.949901   -2.779976   -0.047198
     22          1           0       -4.755932   -2.866159   -0.632439
     23          6           0       -2.288534    2.603534    0.000671
     24          8           0       -1.085707    3.276410    0.400500
     25          1           0       -1.205556    4.246458    0.189340
     26          6           0       -2.582375    1.194771    0.489059
     27          8           0       -3.821043    0.959864   -0.195890
     28          6           0       -4.369016   -0.320488    0.148092
     29          8           0       -5.495644   -0.535480   -0.713494
     30          1           0        5.726000   -0.630831    0.262254
     31          1           0        2.195382   -3.090448    0.237892
     32          1           0        3.310206   -2.493165    1.416509
     33          1           0        2.725295   -1.115155   -1.149456
     34          1           0        3.962327    0.056851    1.332262
     35          1           0        3.182720    1.011902   -1.402660
     36          1           0        1.891524    1.877660    1.102041
     37          1           0        0.688053    0.249539   -1.039511
     38          1           0       -6.262375   -0.769453   -0.185308
     39          1           0       -3.109007    3.219171    0.305161
     40          1           0       -2.290264    2.572052   -1.068864
     41          1           0       -2.722680    1.177996    1.549687
     42          1           0       -1.379134    0.296004   -0.995465
     43          1           0       -2.215581   -1.271295    1.361864
     44          1           0       -3.350331   -1.365039   -1.347877
     45          1           0       -4.634947   -0.387338    1.182360
 ---------------------------------------------------------------------

 SCF Done:  E(RB3LYP) =  -1297.97922428     A.U. after   13 cycles

 The electronic state is 1-A.
 Alpha  occ. eigenvalues --  -19.19283 -19.18905 -19.18251 -19.18220 -19.18198
 Alpha  occ. eigenvalues --  -19.17672 -19.16582 -19.15424 -19.14795 -19.14391
 Alpha  occ. eigenvalues --  -19.13497 -10.30943 -10.30267 -10.26813 -10.26103
 Alpha  occ. eigenvalues --  -10.25537 -10.25522 -10.25006 -10.24661 -10.24342
 Alpha  occ. eigenvalues --  -10.24183 -10.24057 -10.23793  -1.10052  -1.09473
 Alpha  occ. eigenvalues --   -1.06242  -1.05709  -1.04445  -1.04045  -1.02939
 Alpha  occ. eigenvalues --   -1.01837  -1.01503  -1.01317  -1.00140  -0.82456
 Alpha  occ. eigenvalues --   -0.80497  -0.79956  -0.78292  -0.71961  -0.70242
 Alpha  occ. eigenvalues --   -0.67536  -0.64779  -0.63458  -0.62335  -0.61463
 Alpha  occ. eigenvalues --   -0.60262  -0.56689  -0.56150  -0.55176  -0.54940
 Alpha  occ. eigenvalues --   -0.54274  -0.53770  -0.52876  -0.51816  -0.50797
 Alpha  occ. eigenvalues --   -0.50449  -0.50031  -0.49419  -0.48835  -0.46562
 Alpha  occ. eigenvalues --   -0.45941  -0.45261  -0.44303  -0.43723  -0.43275
 Alpha  occ. eigenvalues --   -0.42476  -0.41778  -0.41277  -0.40408  -0.40186
 Alpha  occ. eigenvalues --   -0.38997  -0.38705  -0.37967  -0.36949  -0.35946
 Alpha  occ. eigenvalues --   -0.35502  -0.34935  -0.34500  -0.34139  -0.33741
 Alpha  occ. eigenvalues --   -0.33005  -0.31641  -0.31233  -0.30802  -0.29945
 Alpha  occ. eigenvalues --   -0.29410  -0.28351  -0.28256  -0.27090  -0.26803
 Alpha  occ. eigenvalues --   -0.26334
 Alpha virt. eigenvalues --   -0.02085  -0.01848  -0.01600  -0.00119   0.00259
 Alpha virt. eigenvalues --    0.01134   0.01960   0.02238   0.02776   0.03510
 Alpha virt. eigenvalues --    0.03954   0.04174   0.04712   0.05443   0.05705

 Mulliken atomic charges:
              1
     1  O   -0.528431
     2  C   -0.077556
     3  C    0.399006
     4  O   -0.578676
     5  H    0.345401
     6  C   -0.259728
     7  O   -0.569901
     8  H    0.436943
     9  C   -0.238842
    10  O   -0.568704
    11  H    0.348912
    12  C    0.219541
    13  O   -0.251386
    14  C    0.296820
    15  O   -0.258112
    16  C    0.184290
    17  C    0.148967
    18  O   -0.540225
    19  H    0.367188
    20  C   -0.010731
    21  O   -0.538013
    22  H    0.338799
    23  C   -0.239551
    24  O   -0.576073
    25  H    0.363429
    26  C   -0.140541
    27  O   -0.233342
    28  C    0.226110
    29  O   -0.559904
    30  H    0.342219
    31  H    0.145504
    32  H    0.136919
    33  H    0.116491
    34  H    0.127195
    35  H    0.120204
    36  H    0.125563
    37  H    0.116860
    38  H    0.336472
    39  H    0.147826
    40  H    0.161629
    41  H    0.129304
    42  H    0.116213
    43  H    0.107994
    44  H    0.127943
    45  H    0.135973
 Sum of Mulliken atomic charges =   0.00000

 Dipole moment (field-independent basis, Debye):
    X=             -2.8654    Y=             -0.1709    Z=              2.3369  Tot=              3.7015
 Quadrupole moment (field-independent basis, Debye-Ang):
   XX=           -113.9623   YY=           -138.5398   ZZ=           -139.6472
   XY=            -17.5556   XZ=              3.1281   YZ=              1.7708

  Exact polarizability: 233.503   0.759 197.879   0.951   0.376 144.086
 Approx polarizability: 273.672   0.741 259.568   1.977   0.978 239.975

 ******    6 imaginary frequencies (negative Signs) ******

                     1                      2                      3
                     A                      A                      A
 Frequencies --  -286.9273              -248.4624              -246.4017
 Red. masses --     1.7774                 1.7571                 1.1816
 Frc consts  --     0.0862                 0.0639                 0.0423
 IR Inten    --    17.4376                12.4519               106.9011
 Raman Activ --     0.1341                 0.2024                 1.0402

                     4                      5                      6
                     A                      A                      A
 Frequencies --  -211.5811               -68.5580               -63.6733
 Red. masses --     1.1504                 6.2112                 6.6089
 Frc consts  --     0.0303                 0.0172                 0.0158
 IR Inten    --    92.6213                 0.3658                 0.2630
 Raman Activ --     0.8054                 0.0373                 0.0356

                     7                      8                      9
                     A                      A                      A
 Frequencies --    27.4830                53.0230                78.6191
 Red. masses --     7.2257                 6.7675                 5.9706
 Frc consts  --     0.0032                 0.0112                 0.0217
 IR Inten    --     0.0660                 1.3484                 4.6262
 Raman Activ --     0.0338                 0.0728                 0.1526

                    10                     11                     12
                     A                      A                      A
 Frequencies --    93.2770                96.9516               121.8991
 Red. masses --     6.6908                 6.2397                 5.5775
 Frc consts  --     0.0343                 0.0346                 0.0488
 IR Inten    --     0.0444                 2.7736                 0.3958
 Raman Activ --     0.2246                 0.0624                 0.0614

                    13                     14                     15
                     A                      A                      A
 Frequencies --   156.9572               175.2711               183.2677
 Red. masses --     6.7284                 5.8643                 7.2789
 Frc consts  --     0.0977                 0.1061                 0.1440
 IR Inten    --     1.2884                 7.9469                 0.3958
 Raman Activ --     0.7948                 0.2209                 0.4681

                    16                     17                     18
                     A                      A                      A
 Frequencies --   214.5936               230.9460               272.7310
 Red. masses --     7.1032                 6.0382                 4.0750
 Frc consts  --     0.1927                 0.1897                 0.1786
 IR Inten    --     0.0616                 0.7311                22.8040
 Raman Activ --     2.9694                 0.3014                 0.3645

                    19                     20                     21
                     A                      A                      A
 Frequencies --   275.1831               284.4018               291.9166
 Red. masses --     4.5317                 5.2144                 6.1591
 Frc consts  --     0.2022                 0.2485                 0.3092
 IR Inten    --     1.1317                 1.6884                 0.2469
 Raman Activ --     0.0971                 0.3694                 0.2648

                    22                     23                     24
                     A                      A                      A
 Frequencies --   308.8496               316.9234               323.0472
 Red. masses --     5.7964                 5.8464                 6.5147
 Frc consts  --     0.3258                 0.3460                 0.4006
 IR Inten    --     9.0152                 1.4581                 5.1257
 Raman Activ --     0.4062                 2.4672                 4.0144

                    25                     26                     27
                     A                      A                      A
 Frequencies --   344.3344               358.5039               371.5701
 Red. masses --     5.0848                 7.6557                 5.1969
 Frc consts  --     0.3552                 0.5797                 0.4227
 IR Inten    --    11.7309                 0.0439                 4.5416
 Raman Activ --     0.2674                 3.2245                 0.5700

                    28                     29                     30
                     A                      A                      A
 Frequencies --   401.0532               414.7822               424.7033
 Red. masses --     3.7214                 6.6537                 5.9222
 Frc consts  --     0.3527                 0.6745                 0.6294
 IR Inten    --    15.0128                 3.3646                 1.8319
 Raman Activ --     2.4673                 5.1254                 3.3727

                    31                     32                     33
                     A                      A                      A
 Frequencies --   432.3871               485.4063               492.9890
 Red. masses --     4.9215                 4.5024                 4.0176
 Frc consts  --     0.5421                 0.6250                 0.5753
 IR Inten    --     1.4104                 2.0658                13.1296
 Raman Activ --     2.6809                 0.8499                 0.8716

                    34                     35                     36
                     A                      A                      A
 Frequencies --   502.3472               519.1278               558.3245
 Red. masses --     3.4186                 3.7995                 3.2451
 Frc consts  --     0.5083                 0.6033                 0.5960
 IR Inten    --     9.3946                 8.2997                24.3052
 Raman Activ --     3.6312                 6.6010                 0.7218

                    37                     38                     39
                     A                      A                      A
 Frequencies --   579.3712               589.4766               596.0268
 Red. masses --     3.9263                 3.5868                 1.6218
 Frc consts  --     0.7765                 0.7343                 0.3395
 IR Inten    --     9.7036                25.0067                49.2151
 Raman Activ --     0.2604                 0.3711                 1.4786

                    40                     41                     42
                     A                      A                      A
 Frequencies --   611.6616               621.0740               683.5006
 Red. masses --     3.6420                 2.4017                 5.3691
 Frc consts  --     0.8028                 0.5458                 1.4778
 IR Inten    --    19.0100                89.4518                 8.5261
 Raman Activ --     0.1228                 2.5778                 0.6451

                    43                     44                     45
                     A                      A                      A
 Frequencies --   758.6715               762.3790               781.5895
 Red. masses --     1.0976                 1.0870                 1.0712
 Frc consts  --     0.3722                 0.3722                 0.3856
 IR Inten    --   101.7010               121.8938                83.9612
 Raman Activ --     2.0065                 1.1589                 1.3285

                    46                     47                     48
                     A                      A                      A
 Frequencies --   811.2391               847.3937               853.3556
 Red. masses --     1.0946                 1.4459                 1.6435
 Frc consts  --     0.4244                 0.6117                 0.7051
 IR Inten    --    75.9661                16.7312                 3.2442
 Raman Activ --     1.9857                 0.8830                 0.3657

                    49                     50                     51
                     A                      A                      A
 Frequencies --   884.6360               927.6837               954.6706
 Red. masses --     1.3080                 6.0482                 4.6643
 Frc consts  --     0.6031                 3.0667                 2.5046
 IR Inten    --    65.8120                88.5721                49.5968
 Raman Activ --     0.3798                 2.5637                 0.7197

                    52                     53                     54
                     A                      A                      A
 Frequencies --   975.8485               986.0709               989.0227
 Red. masses --     6.7115                 6.0473                 5.2822
 Frc consts  --     3.7656                 3.4644                 3.0442
 IR Inten    --    72.0865                27.9027               153.8255
 Raman Activ --     2.0585                 1.4447                 1.0019

                    55                     56                     57
                     A                      A                      A
 Frequencies --   994.2924              1013.3664              1021.5647
 Red. masses --     5.5010                 5.7296                 6.2496
 Frc consts  --     3.2042                 3.4666                 3.8427
 IR Inten    --   404.9441                56.4661                94.4544
 Raman Activ --     2.5521                 1.0414                 3.1868

                    58                     59                     60
                     A                      A                      A
 Frequencies --  1036.3741              1043.6452              1058.0103
 Red. masses --     5.2598                 5.7423                 5.4603
 Frc consts  --     3.3286                 3.6850                 3.6012
 IR Inten    --   327.6913                91.7821               138.5869
 Raman Activ --     3.6174                 5.9448                 2.4194

                    61                     62                     63
                     A                      A                      A
 Frequencies --  1066.7786              1071.1899              1076.8748
 Red. masses --     4.1449                 3.1390                 6.1721
 Frc consts  --     2.7792                 2.1222                 4.2171
 IR Inten    --    64.5870                11.6740                44.8911
 Raman Activ --     4.9788                24.4792                 2.4912

                    64                     65                     66
                     A                      A                      A
 Frequencies --  1092.4543              1102.8506              1105.5090
 Red. masses --     3.2448                 2.2786                 2.5786
 Frc consts  --     2.2816                 1.6328                 1.8568
 IR Inten    --    17.7569                18.5160                15.0153
 Raman Activ --    11.7691                 1.1561                 4.3472

                    67                     68                     69
                     A                      A                      A
 Frequencies --  1123.4555              1136.5225              1138.7675
 Red. masses --     3.3750                 1.9140                 2.1204
 Frc consts  --     2.5098                 1.4566                 1.6201
 IR Inten    --    25.1158                 8.9065                98.8436
 Raman Activ --     3.3324                 3.5773                 2.1719

                    70                     71                     72
                     A                      A                      A
 Frequencies --  1147.2225              1156.2148              1159.4755
 Red. masses --     2.1959                 2.4269                 1.8134
 Frc consts  --     1.7027                 1.9115                 1.4363
 IR Inten    --    43.3290                28.3298                20.3268
 Raman Activ --     3.7004                 5.3384                 0.8833

                    73                     74                     75
                     A                      A                      A
 Frequencies --  1164.0917              1172.1548              1186.1255
 Red. masses --     2.7814                 2.6997                 1.5944
 Frc consts  --     2.2207                 2.1854                 1.3216
 IR Inten    --    33.1732                 3.2048                15.9627
 Raman Activ --     7.3981                 3.0341                 1.3065

                    76                     77                     78
                     A                      A                      A
 Frequencies --  1200.2774              1214.0724              1236.1686
 Red. masses --     1.3105                 1.4054                 1.3514
 Frc consts  --     1.1124                 1.2205                 1.2167
 IR Inten    --    12.9014                22.6556                 4.9596
 Raman Activ --     0.2447                 4.1242                 1.4975

                    79                     80                     81
                     A                      A                      A
 Frequencies --  1238.2756              1254.1572              1257.8856
 Red. masses --     1.3630                 1.2109                 1.2021
 Frc consts  --     1.2314                 1.1222                 1.1207
 IR Inten    --     2.7627                12.2331                10.5420
 Raman Activ --     2.7079                 3.5131                 2.7256

                    82                     83                     84
                     A                      A                      A
 Frequencies --  1268.4041              1281.7212              1297.5083
 Red. masses --     1.2476                 1.3508                 1.2546
 Frc consts  --     1.1826                 1.3074                 1.2444
 IR Inten    --    16.0689                17.8218                10.2528
 Raman Activ --     1.2204                 1.7161                 1.1089

                    85                     86                     87
                     A                      A                      A
 Frequencies --  1302.3408              1305.1629              1308.0522
 Red. masses --     1.1921                 1.2691                 1.2258
 Frc consts  --     1.1913                 1.2737                 1.2358
 IR Inten    --     8.9345                 3.3472                29.2267
 Raman Activ --     3.2917                 3.2953                 2.6020

                    88                     89                     90
                     A                      A                      A
 Frequencies --  1320.1032              1322.5202              1341.5726
 Red. masses --     1.2574                 1.2674                 1.2721
 Frc consts  --     1.2911                 1.3061                 1.3490
 IR Inten    --    18.9976                32.4518                 3.7918
 Raman Activ --     2.4019                 8.1916                 5.6271

                    91                     92                     93
                     A                      A                      A
 Frequencies --  1343.2788              1348.8418              1355.2791
 Red. masses --     1.2559                 1.2494                 1.1690
 Frc consts  --     1.3352                 1.3392                 1.2651
 IR Inten    --    34.7400                 6.0411                31.1394
 Raman Activ --    12.6022                 0.9823                 6.0457

                    94                     95                     96
                     A                      A                      A
 Frequencies --  1355.8039              1363.3551              1369.6291
 Red. masses --     1.4276                 1.1487                 1.4749
 Frc consts  --     1.5461                 1.2580                 1.6302
 IR Inten    --    22.3233                27.2231                 4.3158
 Raman Activ --     4.3197                 2.0328                 4.3283

                    97                     98                     99
                     A                      A                      A
 Frequencies --  1375.1208              1395.4583              1401.0710
 Red. masses --     1.6106                 1.4668                 1.3586
 Frc consts  --     1.7944                 1.6829                 1.5713
 IR Inten    --     7.3321                 3.4390                 5.3916
 Raman Activ --     5.8623                 3.4683                10.2129

                   100                    101                    102
                     A                      A                      A
 Frequencies --  1417.9954              1455.1939              1470.0930
 Red. masses --     1.4715                 1.3664                 1.0853
 Frc consts  --     1.7433                 1.7048                 1.3819
 IR Inten    --     9.2112                27.9142                 3.4835
 Raman Activ --     0.3909                 1.4651                 3.6799

                   103                    104                    105
                     A                      A                      A
 Frequencies --  1472.2225              1475.2176              1478.5846
 Red. masses --     1.3403                 1.2001                 1.2564
 Frc consts  --     1.7116                 1.5387                 1.6184
 IR Inten    --    53.8580                24.5626                 5.1270
 Raman Activ --     2.1646                 3.0046                 1.2887

                   106                    107                    108
                     A                      A                      A
 Frequencies --  1537.6050              1538.2710              3201.1687
 Red. masses --     1.2208                 1.2596                 1.0686
 Frc consts  --     1.7005                 1.7561                 6.4519
 IR Inten    --     6.6282               101.4671              1175.4753
 Raman Activ --     2.3259                 0.1891               165.6134

                   109                    110                    111
                     A                      A                      A
 Frequencies --  3249.3323              3255.5929              3261.5515
 Red. masses --     1.0796                 1.0598                 1.0779
 Frc consts  --     6.7156                 6.6182                 6.7556
 IR Inten    --    27.0594                25.0543                26.6233
 Raman Activ --    77.0061                73.2859               150.5575

                   112                    113                    114
                     A                      A                      A
 Frequencies --  3264.3298              3264.8201              3274.9375
 Red. masses --     1.0714                 1.0701                 1.0828
 Frc consts  --     6.7266                 6.7205                 6.8422
 IR Inten    --    10.5102                 2.7026                 0.8692
 Raman Activ --    69.0813                37.4940                 2.1239

                   115                    116                    117
                     A                      A                      A
 Frequencies --  3277.6754              3281.0487              3284.7317
 Red. masses --     1.0826                 1.0838                 1.0845
 Frc consts  --     6.8523                 6.8740                 6.8938
 IR Inten    --     2.0024                 2.2959                42.1976
 Raman Activ --   100.9584                78.0024                93.3825

                   118                    119                    120
                     A                      A                      A
 Frequencies --  3290.3651              3297.9829              3302.6355
 Red. masses --     1.0868                 1.0879                 1.0889
 Frc consts  --     6.9322                 6.9715                 6.9977
 IR Inten    --     6.2867                78.3801                38.2258
 Raman Activ --    10.3421                42.4442                18.5812

                   121                    122                    123
                     A                      A                      A
 Frequencies --  3313.2153              3319.0021              3337.1955
 Red. masses --     1.1040                 1.1055                 1.0659
 Frc consts  --     7.1405                 7.1749                 6.9943
 IR Inten    --    49.9998                41.6150               304.3897
 Raman Activ --    33.7251                46.5241               139.6203

                   124                    125                    126
                     A                      A                      A
 Frequencies --  3363.7506              3366.5859              3374.7682
 Red. masses --     1.0694                 1.0649                 1.0654
 Frc consts  --     7.1291                 7.1114                 7.1488
 IR Inten    --    58.4162                45.5784                52.9066
 Raman Activ --   179.8318               102.2718                99.8330

                   127                    128                    129
                     A                      A                      A
 Frequencies --  3375.4809              3890.3955              3893.9247
 Red. masses --     1.0666                 1.0673                 1.0674
 Frc consts  --     7.1600                 9.5178                 9.5360
 IR Inten    --    61.8856                74.3615                81.8284
 Raman Activ --   153.4997               117.1422                99.6335

 - Thermochemistry -
 -------------------
 Temperature   298.150 Kelvin.  Pressure   1.00000 Atm.
 Atom     1 has atomic number  8 and mass  15.99491

 Molecular mass:   342.11621 amu.
 Principal axes and moments of inertia in atomic units:
                           1         2         3
     Eigenvalues --  4426.82609********************
           X            0.99997  -0.00792   0.00040
           Y            0.00792   0.99997  -0.00118
           Z           -0.00039   0.00118   1.00000
 This molecule is an asymmetric top.
 Rotational symmetry number  1.
 Warning -- assumption of classical behavior for rotation
           may cause significant error
 Rotational temperatures (Kelvin)      0.01957     0.00692     0.00525
 Rotational constants (GHZ):           0.40768     0.14414     0.10935
    6 imaginary frequencies ignored.
 Zero-point vibrational energy     975753.3 (Joules/Mol)
                                  233.21064 (Kcal/Mol)
 Warning -- explicit consideration of  34 degrees of freedom as
           vibrations may cause significant error
 Vibrational temperatures:     39.54    76.29   113.12   134.20   139.49
          (Kelvin)            175.39   225.83   252.18   263.68   308.75
                              332.28   392.40   395.93   409.19   420.00
                              444.37   455.98   464.79   495.42   515.81
                              534.61   577.03   596.78   611.05   622.11
                              698.39   709.30   722.76   746.91   803.30
                              833.58   848.12   857.55   880.04   893.59
                              983.40  1091.56  1096.89  1124.53  1167.19
                             1219.21  1227.79  1272.79  1334.73  1373.56
                             1404.03  1418.73  1422.98  1430.56  1458.01
                             1469.80  1491.11  1501.57  1522.24  1534.85
                             1541.20  1549.38  1571.80  1586.75  1590.58
                             1616.40  1635.20  1638.43  1650.60  1663.53
                             1668.22  1674.87  1686.47  1706.57  1726.93
                             1746.78  1778.57  1781.60  1804.45  1809.81
                             1824.95  1844.11  1866.82  1873.78  1877.84
                             1881.99  1899.33  1902.81  1930.22  1932.68
                             1940.68  1949.94  1950.70  1961.56  1970.59
                             1978.49  2007.75  2015.83  2040.18  2093.70
                             2115.13  2118.20  2122.51  2127.35  2212.27
                             2213.23  4605.76  4675.06  4684.07  4692.64
                             4696.64  4697.34  4711.90  4715.84  4720.69
                             4725.99  4734.10  4745.06  4751.75  4766.97
                             4775.30  4801.47  4839.68  4843.76  4855.53
                             4856.56  5597.40  5602.48

 Zero-point correction=                           0.371645 (Hartree/Particle)
 Thermal correction to Energy=                    0.390810
 Thermal correction to Enthalpy=                  0.391755
 Thermal correction to Gibbs Free Energy=         0.324591
 Sum of electronic and zero-point Energies=          -1297.607579
 Sum of electronic and thermal Energies=             -1297.588414
 Sum of electronic and thermal Enthalpies=           -1297.587470
 Sum of electronic and thermal Free Energies=        -1297.654634

                     E (Thermal)             CV                S
                      KCal/Mol        Cal/Mol-Kelvin    Cal/Mol-Kelvin
 Total                  245.237             77.877            141.358
 Electronic               0.000              0.000              0.000
 Translational            0.889              2.981             43.384
 Rotational               0.889              2.981             35.169
 Vibrational            243.460             71.915             62.805
 Vibration     1          0.593              1.984              6.003
 Vibration     2          0.596              1.976              4.701
 Vibration     3          0.600              1.964              3.925
 Vibration     4          0.602              1.954              3.590
 Vibration     5          0.603              1.951              3.515
 Vibration     6          0.609              1.931              3.070
 Vibration     7          0.621              1.895              2.586
 Vibration     8          0.627              1.873              2.378
 Vibration     9          0.631              1.863              2.295
 Vibration    10          0.645              1.819              2.004
 Vibration    11          0.653              1.794              1.872
 Vibration    12          0.676              1.724              1.579
 Vibration    13          0.677              1.719              1.563
 Vibration    14          0.683              1.703              1.507
 Vibration    15          0.687              1.689              1.463
 Vibration    16          0.698              1.657              1.368
 Vibration    17          0.704              1.641              1.326
 Vibration    18          0.708              1.629              1.295
 Vibration    19          0.723              1.587              1.192
 Vibration    20          0.733              1.558              1.129
 Vibration    21          0.743              1.531              1.073
 Vibration    22          0.767              1.468              0.959
 Vibration    23          0.778              1.438              0.910
 Vibration    24          0.787              1.417              0.876
 Vibration    25          0.793              1.400              0.851
 Vibration    26          0.841              1.282              0.696
 Vibration    27          0.849              1.266              0.676
 Vibration    28          0.858              1.245              0.652
 Vibration    29          0.874              1.208              0.612
 Vibration    30          0.914              1.122              0.527
 Vibration    31          0.936              1.076              0.487
 Vibration    32          0.947              1.054              0.468
 Vibration    33          0.954              1.040              0.457
 Vibration    34          0.971              1.007              0.430

 Normal termination of Gaussian 09 at Mon Mar 21 22:35:18 2016.
