 Gaussian 09, Revision B.01,
 Gaussian 09:  EM64L-G09RevB.01 12-Aug-2010

 -------------------------------------------------
 # freq=raman b3lyp/6-31+g(2d,p) geom=connectivity
 -------------------------------------------------

 -----------------
 320 5646/5646.com
 -----------------
 Symbolic Z-matrix:
 Charge =  0 Multiplicity = 1

                         Standard orientation:
 ---------------------------------------------------------------------
 Center     Atomic      Atomic             Coordinates (Angstroms)
 Number     Number       Type             X           Y           Z
 ---------------------------------------------------------------------
      1          8           0       -5.086392   -0.383835    0.285593
      2          6           0       -3.754108   -0.094948   -0.162765
      3          6           0       -3.182527    1.277681    0.154179
      4          8           0       -4.002857    2.307327   -0.415753
      5          1           0       -4.933923    2.116420   -0.105073
      6          6           0       -1.763413    1.572317   -0.305109
      7          8           0       -1.271897    2.798727    0.253839
      8          1           0       -0.272097    2.802457    0.274534
      9          6           0       -3.149085   -2.488156   -0.117680
     10          8           0       -4.386842   -3.057930    0.330935
     11          1           0       -4.266924   -4.048510    0.405527
     12          6           0       -2.757564   -1.105742    0.378719
     13          8           0       -1.394965   -0.863053    0.000138
     14          6           0       -0.919207    0.458909    0.293508
     15          8           0        0.327525    0.508914   -0.415215
     16          6           0        1.563731    0.155296    0.219607
     17          6           0        1.982081   -1.136127   -0.463947
     18          8           0        1.060307   -2.190038   -0.149150
     19          1           0        0.150410   -1.827602   -0.351945
     20          6           0        3.342992   -1.573400    0.052050
     21          8           0        3.783350   -2.770785   -0.603911
     22          1           0        4.691310   -3.067662   -0.308643
     23          6           0        2.440972    2.599190    0.038447
     24          8           0        1.179873    3.276098   -0.066911
     25          1           0        1.322635    4.263918   -0.127167
     26          6           0        2.597177    1.130648   -0.320547
     27          8           0        3.874971    0.850885    0.270151
     28          6           0        4.358568   -0.450656   -0.092167
     29          8           0        5.399130   -0.633291    0.878717
     30          1           0        6.214647   -0.872934    0.432508
     31          1           0        3.133286    3.140826   -0.571662
     32          1           0        2.763165    2.704209    1.053367
     33          1           0        2.664636    1.027744   -1.383449
     34          1           0        1.520053    0.098328    1.287196
     35          1           0        2.022970   -0.991704   -1.523366
     36          1           0        3.242501   -1.790726    1.094917
     37          1           0        4.767904   -0.437229   -1.080683
     38          1           0       -5.638665   -0.598699   -0.469674
     39          1           0       -2.365925   -3.162632    0.159164
     40          1           0       -3.182492   -2.448197   -1.186411
     41          1           0       -2.817342   -1.099648    1.447031
     42          1           0       -3.757218   -0.193676   -1.228196
     43          1           0       -3.206548    1.395577    1.217392
     44          1           0       -1.694463    1.577044   -1.372875
     45          1           0       -0.773246    0.598461    1.344280
 ---------------------------------------------------------------------

 SCF Done:  E(RB3LYP) =  -1297.98346170     A.U. after   13 cycles

 The electronic state is 1-A.
 Alpha  occ. eigenvalues --  -19.18757 -19.18345 -19.17906 -19.17515 -19.17392
 Alpha  occ. eigenvalues --  -19.16818 -19.16324 -19.16024 -19.14459 -19.13470
 Alpha  occ. eigenvalues --  -19.12221 -10.30326 -10.30158 -10.25970 -10.25486
 Alpha  occ. eigenvalues --  -10.25124 -10.24986 -10.24705 -10.24558 -10.23959
 Alpha  occ. eigenvalues --  -10.23840 -10.23728 -10.23497  -1.09830  -1.09116
 Alpha  occ. eigenvalues --   -1.05689  -1.04887  -1.03733  -1.03319  -1.02563
 Alpha  occ. eigenvalues --   -1.02307  -1.01603  -1.00262  -0.99169  -0.82383
 Alpha  occ. eigenvalues --   -0.80117  -0.79258  -0.77941  -0.71997  -0.69460
 Alpha  occ. eigenvalues --   -0.67238  -0.64452  -0.62933  -0.62263  -0.61525
 Alpha  occ. eigenvalues --   -0.59818  -0.56448  -0.56029  -0.55077  -0.54823
 Alpha  occ. eigenvalues --   -0.53875  -0.53148  -0.52700  -0.51821  -0.50927
 Alpha  occ. eigenvalues --   -0.50764  -0.49650  -0.48729  -0.48675  -0.46500
 Alpha  occ. eigenvalues --   -0.45718  -0.44920  -0.43925  -0.43397  -0.42994
 Alpha  occ. eigenvalues --   -0.42244  -0.41402  -0.40693  -0.40350  -0.39240
 Alpha  occ. eigenvalues --   -0.38709  -0.38055  -0.37558  -0.36059  -0.35533
 Alpha  occ. eigenvalues --   -0.34958  -0.34681  -0.34298  -0.33852  -0.32923
 Alpha  occ. eigenvalues --   -0.32264  -0.31153  -0.30471  -0.30119  -0.29557
 Alpha  occ. eigenvalues --   -0.28884  -0.28621  -0.28530  -0.27050  -0.26188
 Alpha  occ. eigenvalues --   -0.25877
 Alpha virt. eigenvalues --   -0.02090  -0.02012  -0.01551  -0.00023   0.00308
 Alpha virt. eigenvalues --    0.01047   0.01800   0.02180   0.03087   0.03704
 Alpha virt. eigenvalues --    0.03806   0.04430   0.05002   0.05290   0.05499

 Mulliken atomic charges:
              1
     1  O   -0.535647
     2  C   -0.174374
     3  C    0.289841
     4  O   -0.566585
     5  H    0.335106
     6  C    0.150502
     7  O   -0.587062
     8  H    0.432958
     9  C   -0.282739
    10  O   -0.530773
    11  H    0.341765
    12  C    0.260919
    13  O   -0.233070
    14  C   -0.092908
    15  O   -0.223250
    16  C    0.164072
    17  C    0.115033
    18  O   -0.573830
    19  H    0.381396
    20  C    0.199540
    21  O   -0.553185
    22  H    0.328211
    23  C   -0.288517
    24  O   -0.567962
    25  H    0.364283
    26  C    0.030088
    27  O   -0.235148
    28  C    0.053827
    29  O   -0.513235
    30  H    0.327128
    31  H    0.143864
    32  H    0.158311
    33  H    0.123623
    34  H    0.132272
    35  H    0.125313
    36  H    0.136462
    37  H    0.128909
    38  H    0.347029
    39  H    0.138839
    40  H    0.137114
    41  H    0.113604
    42  H    0.110259
    43  H    0.120222
    44  H    0.131986
    45  H    0.135810
 Sum of Mulliken atomic charges =   0.00000

 Dipole moment (field-independent basis, Debye):
    X=              3.2701    Y=             -0.3548    Z=             -1.4225  Tot=              3.5838
 Quadrupole moment (field-independent basis, Debye-Ang):
   XX=           -117.9745   YY=           -135.5962   ZZ=           -138.4656
   XY=             13.9391   XZ=             -1.4072   YZ=             -1.1428

  Exact polarizability: 234.640  -0.848 197.373   0.969   0.379 143.869
 Approx polarizability: 275.223  -0.303 257.729   1.177   0.171 238.681

 ******    7 imaginary frequencies (negative Signs) ******

                     1                      2                      3
                     A                      A                      A
 Frequencies --  -284.1215              -280.5746              -267.0651
 Red. masses --     1.4299                 1.7842                 1.1917
 Frc consts  --     0.0680                 0.0828                 0.0501
 IR Inten    --    59.2552                 1.9303               104.2136
 Raman Activ --     0.4229                 0.0947                 1.0448

                     4                      5                      6
                     A                      A                      A
 Frequencies --  -236.6655               -79.1649               -55.6909
 Red. masses --     1.3830                 6.9559                 6.1375
 Frc consts  --     0.0456                 0.0257                 0.0112
 IR Inten    --    48.5804                 0.7656                 0.7319
 Raman Activ --     0.4558                 0.0194                 0.0656

                     7                      8                      9
                     A                      A                      A
 Frequencies --   -45.3052                44.3929                70.7035
 Red. masses --     6.5151                 6.4377                 6.7721
 Frc consts  --     0.0079                 0.0075                 0.0199
 IR Inten    --     0.5061                 1.6647                 0.0760
 Raman Activ --     0.0350                 0.0161                 0.2100

                    10                     11                     12
                     A                      A                      A
 Frequencies --    78.2385                83.4846                97.3676
 Red. masses --     6.4883                 6.4496                 6.0103
 Frc consts  --     0.0234                 0.0265                 0.0336
 IR Inten    --     2.3598                 1.4288                 0.5113
 Raman Activ --     0.1016                 0.0660                 0.1032

                    13                     14                     15
                     A                      A                      A
 Frequencies --   157.9198               187.8466               198.5695
 Red. masses --     6.1792                 5.9257                 7.0711
 Frc consts  --     0.0908                 0.1232                 0.1643
 IR Inten    --     2.6308                 1.5821                 0.9506
 Raman Activ --     0.4609                 0.4877                 0.7711

                    16                     17                     18
                     A                      A                      A
 Frequencies --   219.9384               239.2322               269.0428
 Red. masses --     7.2340                 5.5536                 5.1517
 Frc consts  --     0.2062                 0.1873                 0.2197
 IR Inten    --     0.1922                 5.1618                12.3977
 Raman Activ --     2.7589                 0.2555                 0.7160

                    19                     20                     21
                     A                      A                      A
 Frequencies --   272.6290               283.9202               311.1496
 Red. masses --     4.7723                 4.7647                 5.7337
 Frc consts  --     0.2090                 0.2263                 0.3271
 IR Inten    --     2.5431                 2.3558                 3.7520
 Raman Activ --     0.0746                 0.3151                 0.6460

                    22                     23                     24
                     A                      A                      A
 Frequencies --   317.2741               322.4941               324.8369
 Red. masses --     6.0971                 6.5609                 5.2810
 Frc consts  --     0.3616                 0.4020                 0.3283
 IR Inten    --     2.9885                 1.6807                 4.5879
 Raman Activ --     3.5053                 2.7414                 1.0187

                    25                     26                     27
                     A                      A                      A
 Frequencies --   356.8333               375.3897               382.3328
 Red. masses --     6.2360                 5.9795                 4.6029
 Frc consts  --     0.4678                 0.4965                 0.3964
 IR Inten    --    12.8938                 0.8410                 1.2091
 Raman Activ --     0.2567                 1.6435                 0.7007

                    28                     29                     30
                     A                      A                      A
 Frequencies --   416.0305               425.2695               435.0462
 Red. masses --     4.1532                 5.9644                 5.8111
 Frc consts  --     0.4235                 0.6355                 0.6480
 IR Inten    --    16.6261                 1.1274                 0.8093
 Raman Activ --     1.4479                 8.4912                 0.8214

                    31                     32                     33
                     A                      A                      A
 Frequencies --   454.8892               482.5179               495.3466
 Red. masses --     4.8754                 4.7525                 3.9647
 Frc consts  --     0.5944                 0.6519                 0.5732
 IR Inten    --     4.9129                 0.7854                17.0050
 Raman Activ --     0.8618                 4.7252                 0.7053

                    34                     35                     36
                     A                      A                      A
 Frequencies --   519.7783               530.6488               572.0937
 Red. masses --     3.9496                 3.0909                 3.8254
 Frc consts  --     0.6287                 0.5128                 0.7377
 IR Inten    --    10.7503                 6.8481                18.1766
 Raman Activ --     0.8674                 3.5835                 2.8191

                    37                     38                     39
                     A                      A                      A
 Frequencies --   601.7664               605.9769               622.0653
 Red. masses --     5.1584                 3.0145                 5.8712
 Frc consts  --     1.1006                 0.6522                 1.3386
 IR Inten    --    13.6640                26.5156                15.6787
 Raman Activ --     0.5954                 0.6831                 0.7398

                    40                     41                     42
                     A                      A                      A
 Frequencies --   632.6776               684.5198               688.1450
 Red. masses --     3.5997                 1.0920                 1.0909
 Frc consts  --     0.8490                 0.3015                 0.3044
 IR Inten    --    20.9791                91.0493                81.6632
 Raman Activ --     1.6461                 1.7883                 2.4019

                    43                     44                     45
                     A                      A                      A
 Frequencies --   690.0178               700.2709               767.0705
 Red. masses --     2.8268                 1.2197                 1.0820
 Frc consts  --     0.7930                 0.3524                 0.3751
 IR Inten    --    57.9192                87.3213                96.7708
 Raman Activ --     0.4871                 2.0408                 1.8628

                    46                     47                     48
                     A                      A                      A
 Frequencies --   798.7437               817.5116               853.1743
 Red. masses --     1.0893                 1.0773                 1.7542
 Frc consts  --     0.4095                 0.4242                 0.7523
 IR Inten    --    94.7503               129.9448                 3.1149
 Raman Activ --     0.5172                 2.2335                 0.3566

                    49                     50                     51
                     A                      A                      A
 Frequencies --   862.9938               913.5103               946.2163
 Red. masses --     1.7215                 5.8274                 5.0003
 Frc consts  --     0.7554                 2.8652                 2.6377
 IR Inten    --     6.1222                95.3947                43.6385
 Raman Activ --     1.6158                 2.1390                 1.1073

                    52                     53                     54
                     A                      A                      A
 Frequencies --   977.1679               978.1079               986.0194
 Red. masses --     5.5358                 6.8714                 4.9626
 Frc consts  --     3.1144                 3.8732                 2.8427
 IR Inten    --   217.9089                12.5128                48.3943
 Raman Activ --     2.3448                 3.8975                 1.1919

                    55                     56                     57
                     A                      A                      A
 Frequencies --  1005.0544              1015.8429              1022.8396
 Red. masses --     5.0503                 6.3520                 6.2470
 Frc consts  --     3.0057                 3.8620                 3.8507
 IR Inten    --   193.9384               210.3634               133.5814
 Raman Activ --     0.6824                 1.8354                 4.9573

                    58                     59                     60
                     A                      A                      A
 Frequencies --  1032.4675              1049.7681              1057.4938
 Red. masses --     4.5863                 5.9639                 5.9028
 Frc consts  --     2.8805                 3.8723                 3.8892
 IR Inten    --   245.6019                90.2619               163.3444
 Raman Activ --     2.7731                 1.5203                 3.0012

                    61                     62                     63
                     A                      A                      A
 Frequencies --  1062.0308              1068.3095              1075.8906
 Red. masses --     3.1302                 3.0760                 4.1196
 Frc consts  --     2.0801                 2.0684                 2.8096
 IR Inten    --    14.1437                26.7132                26.0907
 Raman Activ --     7.6540                29.2134                 1.8580

                    64                     65                     66
                     A                      A                      A
 Frequencies --  1090.1631              1096.7770              1104.9702
 Red. masses --     3.6058                 2.5614                 2.2893
 Frc consts  --     2.5248                 1.8154                 1.6468
 IR Inten    --    28.7796                24.8814                60.5250
 Raman Activ --     4.4331                 6.0989                 6.8503

                    67                     68                     69
                     A                      A                      A
 Frequencies --  1113.7828              1119.6933              1122.7076
 Red. masses --     2.1371                 2.4386                 2.4842
 Frc consts  --     1.5620                 1.8013                 1.8449
 IR Inten    --    26.4542                63.7048                26.8548
 Raman Activ --     4.3517                 9.4099                 2.1755

                    70                     71                     72
                     A                      A                      A
 Frequencies --  1129.9928              1145.7321              1153.1789
 Red. masses --     2.8066                 2.8925                 2.0769
 Frc consts  --     2.1115                 2.2371                 1.6273
 IR Inten    --    16.7592                10.6789                18.6433
 Raman Activ --     5.3182                 5.6929                 5.5407

                    73                     74                     75
                     A                      A                      A
 Frequencies --  1153.6968              1166.0342              1183.5816
 Red. masses --     1.8258                 1.6323                 1.6563
 Frc consts  --     1.4318                 1.3076                 1.3670
 IR Inten    --     4.0124                23.3630                41.7457
 Raman Activ --     3.4929                 1.6227                 4.5625

                    76                     77                     78
                     A                      A                      A
 Frequencies --  1201.1355              1203.9871              1219.5345
 Red. masses --     1.4724                 1.4770                 1.2251
 Frc consts  --     1.2516                 1.2615                 1.0735
 IR Inten    --    18.7229                 3.1387                 6.5533
 Raman Activ --     3.0583                 0.3418                 1.3389

                    79                     80                     81
                     A                      A                      A
 Frequencies --  1233.0640              1236.3508              1250.5854
 Red. masses --     1.2724                 1.2072                 1.3230
 Frc consts  --     1.1398                 1.0872                 1.2191
 IR Inten    --    13.9673                 8.3342                15.7183
 Raman Activ --     3.4570                 1.0135                 1.3298

                    82                     83                     84
                     A                      A                      A
 Frequencies --  1261.5108              1270.3433              1282.0222
 Red. masses --     1.2341                 1.2635                 1.3513
 Frc consts  --     1.1571                 1.2013                 1.3086
 IR Inten    --     6.6203                 5.6208                55.2338
 Raman Activ --     2.0829                 1.0755                 2.9514

                    85                     86                     87
                     A                      A                      A
 Frequencies --  1291.7478              1293.7453              1297.1828
 Red. masses --     1.3629                 1.2597                 1.2951
 Frc consts  --     1.3399                 1.2423                 1.2840
 IR Inten    --     9.1651                27.7754                23.1379
 Raman Activ --     0.9034                 8.4978                 1.8960

                    88                     89                     90
                     A                      A                      A
 Frequencies --  1307.9071              1311.9775              1322.7533
 Red. masses --     1.2589                 1.2286                 1.2555
 Frc consts  --     1.2688                 1.2460                 1.2943
 IR Inten    --     1.9002                25.4750                21.8915
 Raman Activ --     5.7384                13.7507                 0.5748

                    91                     92                     93
                     A                      A                      A
 Frequencies --  1328.9946              1337.1885              1344.9072
 Red. masses --     1.3930                 1.3689                 1.4546
 Frc consts  --     1.4496                 1.4421                 1.5501
 IR Inten    --    27.1755                27.4372                11.2262
 Raman Activ --     4.5923                 3.1046                 7.6390

                    94                     95                     96
                     A                      A                      A
 Frequencies --  1350.8276              1355.4433              1367.8244
 Red. masses --     1.2417                 1.1239                 1.4104
 Frc consts  --     1.3350                 1.2166                 1.5547
 IR Inten    --    33.3028                25.3927                 7.3864
 Raman Activ --     5.3608                 1.2370                 5.3217

                    97                     98                     99
                     A                      A                      A
 Frequencies --  1371.0259              1396.7836              1403.3275
 Red. masses --     1.5972                 1.5628                 1.3344
 Frc consts  --     1.7689                 1.7964                 1.5483
 IR Inten    --    15.2651                 4.9401                 2.4300
 Raman Activ --     3.9317                 4.5077                 5.4965

                   100                    101                    102
                     A                      A                      A
 Frequencies --  1407.8112              1456.9415              1464.6424
 Red. masses --     1.5410                 1.3242                 1.2749
 Frc consts  --     1.7995                 1.6561                 1.6114
 IR Inten    --    24.6165                52.7547                14.8126
 Raman Activ --     1.3755                 1.1025                 4.8390

                   103                    104                    105
                     A                      A                      A
 Frequencies --  1468.5465              1474.2284              1476.0204
 Red. masses --     1.3859                 1.0923                 1.1361
 Frc consts  --     1.7610                 1.3987                 1.4583
 IR Inten    --    22.6008                 1.0720                 6.8445
 Raman Activ --     0.7419                 4.8892                 2.1249

                   106                    107                    108
                     A                      A                      A
 Frequencies --  1495.0477              1504.5882              3215.8211
 Red. masses --     1.2503                 1.2859                 1.0694
 Frc consts  --     1.6466                 1.7151                 6.5158
 IR Inten    --    62.2003                39.0968              1214.2801
 Raman Activ --     1.9228                 1.5291               176.0019

                   109                    110                    111
                     A                      A                      A
 Frequencies --  3253.9227              3263.4802              3267.0437
 Red. masses --     1.0581                 1.0584                 1.0809
 Frc consts  --     6.6006                 6.6413                 6.7974
 IR Inten    --    30.2230                 4.3664                 3.7004
 Raman Activ --    62.9888               152.0583               135.7497

                   112                    113                    114
                     A                      A                      A
 Frequencies --  3271.0591              3272.4829              3282.3635
 Red. masses --     1.0848                 1.0827                 1.0846
 Frc consts  --     6.8389                 6.8315                 6.8849
 IR Inten    --    23.2520                18.7856                 9.8308
 Raman Activ --     4.0569                 9.8983               126.2323

                   115                    116                    117
                     A                      A                      A
 Frequencies --  3285.8440              3286.2080              3294.0776
 Red. masses --     1.0853                 1.0860                 1.0850
 Frc consts  --     6.9037                 6.9101                 6.9369
 IR Inten    --    20.1907                15.3197                10.9784
 Raman Activ --    28.3091                99.0660                63.1087

                   118                    119                    120
                     A                      A                      A
 Frequencies --  3297.5313              3305.3819              3309.5727
 Red. masses --     1.0863                 1.0883                 1.1005
 Frc consts  --     6.9598                 7.0054                 7.1019
 IR Inten    --    57.7656                53.9787                83.7865
 Raman Activ --    56.3983                 8.4412                12.6969

                   121                    122                    123
                     A                      A                      A
 Frequencies --  3312.3144              3316.0055              3318.7093
 Red. masses --     1.0905                 1.0838                 1.0871
 Frc consts  --     7.0491                 7.0216                 7.0542
 IR Inten    --    35.6584               300.7391               210.9233
 Raman Activ --    25.3340               133.3954                73.3337

                   124                    125                    126
                     A                      A                      A
 Frequencies --  3360.7202              3364.9710              3367.7855
 Red. masses --     1.0691                 1.0655                 1.0667
 Frc consts  --     7.1141                 7.1080                 7.1279
 IR Inten    --    34.4110                25.3808                29.3393
 Raman Activ --   153.7512               125.7443               184.4289

                   127                    128                    129
                     A                      A                      A
 Frequencies --  3376.0369              3890.3143              3890.6902
 Red. masses --     1.0674                 1.0674                 1.0677
 Frc consts  --     7.1680                 9.5176                 9.5230
 IR Inten    --    76.4024                74.4586                73.5942
 Raman Activ --   156.1162               105.8232               101.1690

 - Thermochemistry -
 -------------------
 Temperature   298.150 Kelvin.  Pressure   1.00000 Atm.
 Atom     1 has atomic number  8 and mass  15.99491

 Molecular mass:   342.11621 amu.
 Principal axes and moments of inertia in atomic units:
                           1         2         3
     Eigenvalues --  4351.17828********************
           X            0.99997   0.00740  -0.00047
           Y           -0.00740   0.99997   0.00092
           Z            0.00047  -0.00091   1.00000
 This molecule is an asymmetric top.
 Rotational symmetry number  1.
 Warning -- assumption of classical behavior for rotation
           may cause significant error
 Rotational temperatures (Kelvin)      0.01991     0.00700     0.00531
 Rotational constants (GHZ):           0.41477     0.14582     0.11070
    7 imaginary frequencies ignored.
 Zero-point vibrational energy     973829.1 (Joules/Mol)
                                  232.75074 (Kcal/Mol)
 Warning -- explicit consideration of  31 degrees of freedom as
           vibrations may cause significant error
 Vibrational temperatures:     63.87   101.73   112.57   120.12   140.09
          (Kelvin)            227.21   270.27   285.70   316.44   344.20
                              387.09   392.25   408.50   447.67   456.49
                              464.00   467.37   513.40   540.10   550.09
                              598.57   611.87   625.93   654.48   694.23
                              712.69   747.84   763.48   823.11   865.81
                              871.86   895.01   910.28   984.87   990.09
                              992.78  1007.53  1103.64  1149.21  1176.22
                             1227.53  1241.65  1314.34  1361.39  1405.92
                             1407.28  1418.66  1446.05  1461.57  1471.64
                             1485.49  1510.38  1521.50  1528.02  1537.06
                             1547.96  1568.50  1578.02  1589.80  1602.48
                             1610.99  1615.32  1625.81  1648.45  1659.17
                             1659.91  1677.66  1702.91  1728.16  1732.27
                             1754.64  1774.10  1778.83  1799.31  1815.03
                             1827.74  1844.54  1858.53  1861.41  1866.35
                             1881.78  1887.64  1903.14  1912.12  1923.91
                             1935.02  1943.54  1950.18  1967.99  1972.60
                             2009.66  2019.07  2025.52  2096.21  2107.29
                             2112.91  2121.08  2123.66  2151.04  2164.76
                             4626.84  4681.66  4695.41  4700.54  4706.32
                             4708.37  4722.58  4727.59  4728.11  4739.44
                             4744.41  4755.70  4761.73  4765.68  4770.99
                             4774.88  4835.32  4841.44  4845.49  4857.36
                             5597.29  5597.83

 Zero-point correction=                           0.370912 (Hartree/Particle)
 Thermal correction to Energy=                    0.389122
 Thermal correction to Enthalpy=                  0.390066
 Thermal correction to Gibbs Free Energy=         0.325462
 Sum of electronic and zero-point Energies=          -1297.612550
 Sum of electronic and thermal Energies=             -1297.594340
 Sum of electronic and thermal Enthalpies=           -1297.593396
 Sum of electronic and thermal Free Energies=        -1297.658000

                     E (Thermal)             CV                S
                      KCal/Mol        Cal/Mol-Kelvin    Cal/Mol-Kelvin
 Total                  244.178             75.812            135.970
 Electronic               0.000              0.000              0.000
 Translational            0.889              2.981             43.384
 Rotational               0.889              2.981             35.128
 Vibrational            242.400             69.850             57.458
 Vibration     1          0.595              1.980              5.053
 Vibration     2          0.598              1.968              4.134
 Vibration     3          0.600              1.964              3.935
 Vibration     4          0.600              1.961              3.807
 Vibration     5          0.603              1.951              3.506
 Vibration     6          0.621              1.894              2.575
 Vibration     7          0.633              1.857              2.249
 Vibration     8          0.637              1.842              2.146
 Vibration     9          0.647              1.811              1.960
 Vibration    10          0.657              1.780              1.809
 Vibration    11          0.673              1.730              1.602
 Vibration    12          0.676              1.724              1.579
 Vibration    13          0.682              1.703              1.510
 Vibration    14          0.700              1.652              1.356
 Vibration    15          0.704              1.641              1.324
 Vibration    16          0.708              1.630              1.297
 Vibration    17          0.709              1.626              1.286
 Vibration    18          0.732              1.561              1.136
 Vibration    19          0.746              1.523              1.058
 Vibration    20          0.752              1.508              1.030
 Vibration    21          0.779              1.435              0.906
 Vibration    22          0.787              1.415              0.874
 Vibration    23          0.796              1.394              0.842
 Vibration    24          0.813              1.350              0.781
 Vibration    25          0.839              1.289              0.703
 Vibration    26          0.851              1.260              0.670
 Vibration    27          0.875              1.206              0.610
 Vibration    28          0.886              1.182              0.586
 Vibration    29          0.928              1.092              0.500
 Vibration    30          0.960              1.028              0.447
 Vibration    31          0.965              1.019              0.439

 Normal termination of Gaussian 09 at Thu Mar 24 14:35:57 2016.
