 Gaussian 09, Revision B.01,
 Gaussian 09:  EM64L-G09RevB.01 12-Aug-2010

 ------------------------------------------------
 # freq=raman b3lyp/6-31+g(d,p) geom=connectivity
 ------------------------------------------------

 -------------
 350 10000.com
 -------------
 Symbolic Z-matrix:
 Charge =  0 Multiplicity = 1

                         Standard orientation:
 ---------------------------------------------------------------------
 Center     Atomic      Atomic             Coordinates (Angstroms)
 Number     Number       Type             X           Y           Z
 ---------------------------------------------------------------------
      1          8           0        4.993075   -0.441968   -0.336021
      2          6           0        3.674639   -0.063669    0.086833
      3          6           0        3.222419    1.336724   -0.294960
      4          8           0        4.192361    2.247900    0.240818
      5          1           0        5.040849    1.723951    0.169051
      6          6           0        1.799557    1.646578    0.141105
      7          8           0        1.205439    2.751270   -0.555190
      8          1           0        0.307279    2.803486   -0.117213
      9          6           0        2.929116   -2.545569   -0.003160
     10          8           0        4.157704   -3.202986   -0.343077
     11          1           0        4.109349   -4.193055   -0.209977
     12          6           0        2.628934   -1.088986   -0.319049
     13          8           0        1.500102   -0.761175    0.504392
     14          6           0        0.955429    0.410156   -0.120102
     15          8           0       -0.243366    0.568571    0.653225
     16          6           0       -1.431674    0.150336   -0.033233
     17          6           0       -1.909294   -1.197538    0.485149
     18          8           0       -0.913349   -2.188646    0.192827
     19          1           0       -0.037814   -1.805541    0.489126
     20          6           0       -3.280332   -1.525799   -0.084256
     21          8           0       -3.941868   -2.599783    0.599921
     22          1           0       -4.739897   -2.857890    0.055418
     23          6           0       -2.204197    2.587711   -0.258732
     24          8           0       -1.462168    3.293939    0.746389
     25          1           0       -1.489921    4.278892    0.578920
     26          6           0       -2.562295    1.156840    0.108759
     27          8           0       -3.697384    0.706711   -0.645179
     28          6           0       -4.328431   -0.426352   -0.030314
     29          8           0       -5.508114   -0.596529   -0.828901
     30          1           0       -6.273537   -0.679414   -0.255439
     31          1           0       -4.588982   -0.203583    0.983287
     32          1           0       -3.151606   -1.811714   -1.107282
     33          1           0       -2.002810   -1.128283    1.548803
     34          1           0       -1.200634    0.048519   -1.073018
     35          1           0       -2.849824    1.161509    1.139392
     36          1           0       -3.109982    3.124378   -0.449630
     37          1           0       -1.623987    2.570655   -1.157602
     38          1           0        5.543635   -0.598732    0.434634
     39          1           0        2.147858   -3.117553   -0.458538
     40          1           0        2.816183   -2.651453    1.055582
     41          1           0        2.377895   -0.975870   -1.353014
     42          1           0        3.699501   -0.078364    1.156443
     43          1           0        3.258220    1.411906   -1.361714
     44          1           0        1.795659    1.855122    1.190578
     45          1           0        0.749886    0.262021   -1.159673
 ---------------------------------------------------------------------

 SCF Done:  E(RB3LYP) =  -1297.93226472     A.U. after   13 cycles

 The electronic state is 1-A.
 Alpha  occ. eigenvalues --  -19.20550 -19.19572 -19.19222 -19.19132 -19.18245
 Alpha  occ. eigenvalues --  -19.18018 -19.16888 -19.16846 -19.16562 -19.16324
 Alpha  occ. eigenvalues --  -19.15389 -10.31527 -10.31249 -10.26624 -10.26173
 Alpha  occ. eigenvalues --  -10.25872 -10.25815 -10.25559 -10.25485 -10.25376
 Alpha  occ. eigenvalues --  -10.25256 -10.25118 -10.24789  -1.11600  -1.09358
 Alpha  occ. eigenvalues --   -1.06027  -1.05239  -1.04553  -1.03519  -1.03391
 Alpha  occ. eigenvalues --   -1.02894  -1.02466  -1.01820  -1.01289  -0.82342
 Alpha  occ. eigenvalues --   -0.80857  -0.79125  -0.78593  -0.72083  -0.70746
 Alpha  occ. eigenvalues --   -0.67785  -0.65831  -0.63551  -0.62768  -0.61944
 Alpha  occ. eigenvalues --   -0.60983  -0.56963  -0.56271  -0.54924  -0.54728
 Alpha  occ. eigenvalues --   -0.54379  -0.53662  -0.53388  -0.52717  -0.51925
 Alpha  occ. eigenvalues --   -0.50835  -0.50268  -0.49523  -0.49267  -0.46758
 Alpha  occ. eigenvalues --   -0.46153  -0.45446  -0.45127  -0.44260  -0.43978
 Alpha  occ. eigenvalues --   -0.43148  -0.43032  -0.41555  -0.40699  -0.40504
 Alpha  occ. eigenvalues --   -0.38654  -0.38096  -0.37225  -0.37027  -0.36071
 Alpha  occ. eigenvalues --   -0.35527  -0.35016  -0.34810  -0.34707  -0.34381
 Alpha  occ. eigenvalues --   -0.33485  -0.32636  -0.31699  -0.30754  -0.30269
 Alpha  occ. eigenvalues --   -0.29898  -0.29111  -0.28557  -0.28204  -0.27116
 Alpha  occ. eigenvalues --   -0.26543
 Alpha virt. eigenvalues --   -0.02250  -0.02031  -0.01723  -0.00549   0.00233
 Alpha virt. eigenvalues --    0.00801   0.01960   0.02520   0.02797   0.03413
 Alpha virt. eigenvalues --    0.03760   0.04359   0.04484   0.05443   0.05651

 Mulliken atomic charges:
              1
     1  O   -0.519487
     2  C   -0.324941
     3  C    0.250808
     4  O   -0.495315
     5  H    0.348572
     6  C   -0.134142
     7  O   -0.485917
     8  H    0.399006
     9  C   -0.056698
    10  O   -0.555540
    11  H    0.366374
    12  C    0.244191
    13  O   -0.414067
    14  C    0.030952
    15  O   -0.329449
    16  C    0.073611
    17  C   -0.156868
    18  O   -0.510560
    19  H    0.411119
    20  C    0.259690
    21  O   -0.500440
    22  H    0.349683
    23  C    0.120521
    24  O   -0.593416
    25  H    0.386303
    26  C   -0.044378
    27  O   -0.325243
    28  C    0.033658
    29  O   -0.549718
    30  H    0.363658
    31  H    0.130311
    32  H    0.153246
    33  H    0.146390
    34  H    0.125614
    35  H    0.134892
    36  H    0.149130
    37  H    0.140644
    38  H    0.375415
    39  H    0.142870
    40  H    0.138907
    41  H    0.130329
    42  H    0.149433
    43  H    0.144058
    44  H    0.162892
    45  H    0.133904
 Sum of Mulliken atomic charges =   0.00000

 Dipole moment (field-independent basis, Debye):
    X=             -2.3647    Y=             -0.5406    Z=              1.3202  Tot=              2.7617
 Quadrupole moment (field-independent basis, Debye-Ang):
   XX=           -121.6822   YY=           -136.8880   ZZ=           -143.4581
   XY=            -16.2739   XZ=              3.1895   YZ=              1.0988

  Exact polarizability: 226.823   0.291 190.368   1.395  -0.174 140.564
 Approx polarizability: 264.026  -1.224 244.469   1.396   0.243 232.965

 ******    6 imaginary frequencies (negative Signs) ******

                     1                      2                      3
                     A                      A                      A
 Frequencies --  -322.2747              -280.3609              -265.3431
 Red. masses --     1.6514                 1.2444                 1.1859
 Frc consts  --     0.1011                 0.0576                 0.0492
 IR Inten    --    24.4232                95.7324               125.0376
 Raman Activ --     0.2214                 1.0487                 0.7649

                     4                      5                      6
                     A                      A                      A
 Frequencies --  -242.3008               -85.7091               -45.4352
 Red. masses --     1.8796                 6.6521                 6.2629
 Frc consts  --     0.0650                 0.0288                 0.0076
 IR Inten    --    11.1977                 0.3458                 0.3463
 Raman Activ --     0.0556                 0.0269                 0.0249

                     7                      8                      9
                     A                      A                      A
 Frequencies --    17.4649                46.5119                55.2052
 Red. masses --     6.3286                 6.2350                 6.8605
 Frc consts  --     0.0011                 0.0079                 0.0123
 IR Inten    --     3.6707                 2.4125                 0.4112
 Raman Activ --     0.0334                 0.0266                 0.2545

                    10                     11                     12
                     A                      A                      A
 Frequencies --    72.2715               102.2737               128.2388
 Red. masses --     6.6178                 6.8158                 5.5970
 Frc consts  --     0.0204                 0.0420                 0.0542
 IR Inten    --     1.4616                 1.7017                 2.4288
 Raman Activ --     0.0792                 0.0411                 0.1629

                    13                     14                     15
                     A                      A                      A
 Frequencies --   140.0686               175.2919               184.1054
 Red. masses --     5.7329                 6.4699                 5.7327
 Frc consts  --     0.0663                 0.1171                 0.1145
 IR Inten    --     2.8965                 1.5735                 2.9039
 Raman Activ --     0.1257                 0.2619                 0.5075

                    16                     17                     18
                     A                      A                      A
 Frequencies --   193.2394               236.6025               268.7208
 Red. masses --     6.6456                 6.0511                 5.1603
 Frc consts  --     0.1462                 0.1996                 0.2195
 IR Inten    --     0.7522                 4.1520                 7.1871
 Raman Activ --     1.1953                 1.3906                 0.9222

                    19                     20                     21
                     A                      A                      A
 Frequencies --   280.4102               287.5009               294.7820
 Red. masses --     5.7872                 4.4837                 4.6956
 Frc consts  --     0.2681                 0.2184                 0.2404
 IR Inten    --     2.0609                 2.2301                 2.8486
 Raman Activ --     0.2484                 0.4722                 0.2538

                    22                     23                     24
                     A                      A                      A
 Frequencies --   314.7404               318.9934               324.8513
 Red. masses --     5.1609                 5.3103                 6.1836
 Frc consts  --     0.3012                 0.3184                 0.3845
 IR Inten    --     0.7995                 8.4556                 2.0358
 Raman Activ --     1.2595                 0.8079                 2.3302

                    25                     26                     27
                     A                      A                      A
 Frequencies --   333.4266               362.6334               383.9843
 Red. masses --     7.0040                 5.3159                 6.9085
 Frc consts  --     0.4588                 0.4119                 0.6002
 IR Inten    --     2.9976                 9.6693                 2.0385
 Raman Activ --     4.7495                 0.3800                 2.1757

                    28                     29                     30
                     A                      A                      A
 Frequencies --   409.8801               422.4433               442.7777
 Red. masses --     4.8012                 5.7146                 4.6942
 Frc consts  --     0.4752                 0.6009                 0.5422
 IR Inten    --     7.1168                 7.7958                 4.2655
 Raman Activ --     3.5820                 1.1481                 2.4317

                    31                     32                     33
                     A                      A                      A
 Frequencies --   445.2189               480.0987               502.6593
 Red. masses --     4.5010                 4.2063                 4.4637
 Frc consts  --     0.5257                 0.5712                 0.6645
 IR Inten    --    32.2032                 5.4820                13.7954
 Raman Activ --     6.6801                 2.8228                 1.4936

                    34                     35                     36
                     A                      A                      A
 Frequencies --   522.9765               544.8465               563.1357
 Red. masses --     3.9686                 2.9547                 3.0051
 Frc consts  --     0.6395                 0.5168                 0.5615
 IR Inten    --     8.3957                20.9046                20.3169
 Raman Activ --     2.0727                 2.3705                 1.3094

                    37                     38                     39
                     A                      A                      A
 Frequencies --   571.3123               612.0868               630.1868
 Red. masses --     3.7334                 6.4687                 4.6832
 Frc consts  --     0.7180                 1.4279                 1.0958
 IR Inten    --    23.0004                 2.5388                 6.1831
 Raman Activ --     1.5950                 0.4300                 0.2876

                    40                     41                     42
                     A                      A                      A
 Frequencies --   635.9918               649.2048               707.7884
 Red. masses --     4.5484                 1.0737                 5.4242
 Frc consts  --     1.0840                 0.2666                 1.6010
 IR Inten    --    36.9185               133.0852                24.4071
 Raman Activ --     0.6285                 2.3711                 1.6154

                    43                     44                     45
                     A                      A                      A
 Frequencies --   715.1826               732.1486               750.2465
 Red. masses --     1.0824                 1.0909                 1.0829
 Frc consts  --     0.3262                 0.3445                 0.3591
 IR Inten    --   145.8303               105.4920                79.2694
 Raman Activ --     2.6031                 1.9184                 1.1276

                    46                     47                     48
                     A                      A                      A
 Frequencies --   824.4927               846.2429               852.4980
 Red. masses --     1.0665                 1.5079                 1.2738
 Frc consts  --     0.4272                 0.6362                 0.5454
 IR Inten    --   128.4181                16.4073                41.5135
 Raman Activ --     2.4910                 1.5996                 0.8076

                    49                     50                     51
                     A                      A                      A
 Frequencies --   864.3939               943.9495               974.8705
 Red. masses --     1.7189                 4.9113                 5.8834
 Frc consts  --     0.7567                 2.5784                 3.2944
 IR Inten    --     5.1503               157.2606                78.6293
 Raman Activ --     1.0070                 4.1102                 1.5260

                    52                     53                     54
                     A                      A                      A
 Frequencies --   988.2366               994.4103               999.0410
 Red. masses --     4.2973                 3.9326                 6.1351
 Frc consts  --     2.4727                 2.2912                 3.6078
 IR Inten    --     6.2619                51.5423                75.8790
 Raman Activ --     4.0409                 2.0501                 1.4823

                    55                     56                     57
                     A                      A                      A
 Frequencies --  1017.5617              1025.9774              1036.9228
 Red. masses --     5.7216                 6.1272                 5.4795
 Frc consts  --     3.4905                 3.8001                 3.4713
 IR Inten    --   286.1150                14.6840               147.6156
 Raman Activ --     1.0345                 1.8043                 2.9029

                    58                     59                     60
                     A                      A                      A
 Frequencies --  1050.5233              1065.8230              1071.0205
 Red. masses --     6.6351                 2.7805                 3.4440
 Frc consts  --     4.3143                 1.8610                 2.3276
 IR Inten    --   468.5475                23.1506                50.9067
 Raman Activ --     2.1113                 6.4016                 1.8208

                    61                     62                     63
                     A                      A                      A
 Frequencies --  1082.5914              1086.1106              1090.2393
 Red. masses --     4.2266                 4.7227                 4.3805
 Frc consts  --     2.9186                 3.2824                 3.0677
 IR Inten    --    31.6680                89.2062                 7.3093
 Raman Activ --     2.5524                 5.6136                 4.4382

                    64                     65                     66
                     A                      A                      A
 Frequencies --  1105.3549              1107.8066              1117.3788
 Red. masses --     2.8812                 2.4954                 3.3088
 Frc consts  --     2.0741                 1.8044                 2.4340
 IR Inten    --     8.3263                62.7428                49.3884
 Raman Activ --     9.7950                20.1846                12.6421

                    67                     68                     69
                     A                      A                      A
 Frequencies --  1118.9060              1124.0593              1140.2532
 Red. masses --     2.7500                 2.3808                 3.2664
 Frc consts  --     2.0284                 1.7723                 2.5022
 IR Inten    --     2.5844               101.6721                46.7090
 Raman Activ --     1.7055                 1.1912                 3.1787

                    70                     71                     72
                     A                      A                      A
 Frequencies --  1149.6497              1160.3930              1168.3720
 Red. masses --     2.6818                 2.2865                 1.4942
 Frc consts  --     2.0883                 1.8140                 1.2018
 IR Inten    --    22.6014                 5.2918                 9.7666
 Raman Activ --     8.5772                 3.1208                 1.8902

                    73                     74                     75
                     A                      A                      A
 Frequencies --  1178.5974              1184.7095              1190.5495
 Red. masses --     1.5813                 1.9870                 2.0102
 Frc consts  --     1.2942                 1.6431                 1.6787
 IR Inten    --    24.1577                26.1813                14.5372
 Raman Activ --     1.4383                 2.6471                 0.7743

                    76                     77                     78
                     A                      A                      A
 Frequencies --  1210.7210              1223.0614              1234.5954
 Red. masses --     1.5038                 1.3068                 1.2884
 Frc consts  --     1.2988                 1.1518                 1.1571
 IR Inten    --     9.3421                 9.1966                13.7059
 Raman Activ --     3.7030                 2.2963                 0.7903

                    79                     80                     81
                     A                      A                      A
 Frequencies --  1235.9229              1251.1860              1260.7335
 Red. masses --     1.3648                 1.4187                 1.1973
 Frc consts  --     1.2283                 1.3085                 1.1212
 IR Inten    --    15.9742                 5.0089                14.9236
 Raman Activ --     4.8557                 2.0034                 0.4508

                    82                     83                     84
                     A                      A                      A
 Frequencies --  1267.5180              1280.9543              1284.2227
 Red. masses --     1.1850                 1.2040                 1.4340
 Frc consts  --     1.1217                 1.1640                 1.3934
 IR Inten    --    16.4786                15.7936                34.9004
 Raman Activ --     3.3737                 2.4929                 1.3117

                    85                     86                     87
                     A                      A                      A
 Frequencies --  1303.1222              1307.2814              1308.9664
 Red. masses --     1.2527                 1.2361                 1.2541
 Frc consts  --     1.2533                 1.2446                 1.2660
 IR Inten    --    32.4575                 4.5773                33.9663
 Raman Activ --     4.2194                 4.5815                 3.4738

                    88                     89                     90
                     A                      A                      A
 Frequencies --  1312.7532              1316.2580              1327.8939
 Red. masses --     1.3210                 1.2407                 1.3479
 Frc consts  --     1.3413                 1.2664                 1.4004
 IR Inten    --    21.6198                 4.1260                48.3018
 Raman Activ --     2.6662                 2.7718                 4.8182

                    91                     92                     93
                     A                      A                      A
 Frequencies --  1339.2032              1344.4605              1351.1630
 Red. masses --     1.2774                 1.2199                 1.2753
 Frc consts  --     1.3498                 1.2991                 1.3718
 IR Inten    --    42.7295                32.3577                19.6081
 Raman Activ --     5.9117                 9.6277                 5.4434

                    94                     95                     96
                     A                      A                      A
 Frequencies --  1357.5304              1368.9932              1380.7696
 Red. masses --     1.2655                 1.6274                 1.3419
 Frc consts  --     1.3741                 1.7970                 1.5073
 IR Inten    --     9.7369                 9.3936                 8.2209
 Raman Activ --     5.8319                 7.6781                 5.1045

                    97                     98                     99
                     A                      A                      A
 Frequencies --  1391.8117              1407.2813              1418.8190
 Red. masses --     1.7010                 1.3442                 1.2877
 Frc consts  --     1.9414                 1.5684                 1.5272
 IR Inten    --     6.6135                 0.7466                 2.6670
 Raman Activ --     7.1257                 8.1544                 4.8063

                   100                    101                    102
                     A                      A                      A
 Frequencies --  1436.4060              1443.1328              1452.7390
 Red. masses --     1.4121                 1.5280                 1.3499
 Frc consts  --     1.7166                 1.8749                 1.6786
 IR Inten    --    41.9357                 8.7585                 8.8952
 Raman Activ --     0.8430                 0.9303                 2.0361

                   103                    104                    105
                     A                      A                      A
 Frequencies --  1478.2802              1480.8267              1486.7697
 Red. masses --     1.2998                 1.1145                 1.0879
 Frc consts  --     1.6736                 1.4399                 1.4169
 IR Inten    --    55.2806                 3.1025                18.0753
 Raman Activ --     2.5284                 3.2979                 5.2999

                   106                    107                    108
                     A                      A                      A
 Frequencies --  1500.1609              1512.5382              3266.3158
 Red. masses --     1.2823                 1.2956                 1.0586
 Frc consts  --     1.7003                 1.7463                 6.6539
 IR Inten    --    38.7724                30.8819                38.5808
 Raman Activ --     2.3377                 0.7303                72.5701

                   109                    110                    111
                     A                      A                      A
 Frequencies --  3269.2946              3281.2667              3281.6468
 Red. masses --     1.0594                 1.0825                 1.0816
 Frc consts  --     6.6717                 6.8671                 6.8629
 IR Inten    --    22.5057                 1.8436                11.8480
 Raman Activ --    91.6959               150.6541                12.2047

                   112                    113                    114
                     A                      A                      A
 Frequencies --  3287.5692              3288.6581              3296.7111
 Red. masses --     1.0849                 1.0822                 1.0851
 Frc consts  --     6.9087                 6.8961                 6.9482
 IR Inten    --     8.8774                30.0858                25.8409
 Raman Activ --    10.3965               113.7523                69.3135

                   115                    116                    117
                     A                      A                      A
 Frequencies --  3297.4630              3300.6978              3307.3278
 Red. masses --     1.0869                 1.0868                 1.0809
 Frc consts  --     6.9632                 6.9758                 6.9661
 IR Inten    --     9.4222                 1.0649               101.6421
 Raman Activ --    64.5643                 7.8937                66.7066

                   118                    119                    120
                     A                      A                      A
 Frequencies --  3311.6986              3314.9650              3316.7920
 Red. masses --     1.0814                 1.0828                 1.0993
 Frc consts  --     6.9879                 7.0104                 7.1255
 IR Inten    --   175.0486                59.7336                 7.4044
 Raman Activ --    94.5713                66.7929                19.2293

                   121                    122                    123
                     A                      A                      A
 Frequencies --  3323.6003              3330.9563              3334.7798
 Red. masses --     1.0867                 1.1039                 1.0704
 Frc consts  --     7.0724                 7.2165                 7.0137
 IR Inten    --   205.9881               138.7656               390.8914
 Raman Activ --    86.3353                29.3466               143.5293

                   124                    125                    126
                     A                      A                      A
 Frequencies --  3374.7538              3385.4609              3389.7963
 Red. masses --     1.0652                 1.0680                 1.0662
 Frc consts  --     7.1475                 7.2118                 7.2185
 IR Inten    --    41.6386                53.0307                36.7279
 Raman Activ --    81.7305               189.3082               128.0047

                   127                    128                    129
                     A                      A                      A
 Frequencies --  3401.6095              3916.8144              3923.3386
 Red. masses --     1.0675                 1.0680                 1.0676
 Frc consts  --     7.2776                 9.6537                 9.6819
 IR Inten    --    56.2052                79.5920                79.0954
 Raman Activ --   142.0252                79.6301               116.7826

 - Thermochemistry -
 -------------------
 Temperature   298.150 Kelvin.  Pressure   1.00000 Atm.
 Atom     1 has atomic number  8 and mass  15.99491

 Molecular mass:   342.11621 amu.
 Principal axes and moments of inertia in atomic units:
                           1         2         3
     Eigenvalues --  4397.75755********************
           X            0.99997  -0.00747  -0.00002
           Y            0.00747   0.99997  -0.00093
           Z            0.00003   0.00093   1.00000
 This molecule is an asymmetric top.
 Rotational symmetry number  1.
 Warning -- assumption of classical behavior for rotation
           may cause significant error
 Rotational temperatures (Kelvin)      0.01969     0.00709     0.00540
 Rotational constants (GHZ):           0.41038     0.14780     0.11247
    6 imaginary frequencies ignored.
 Zero-point vibrational energy     980327.9 (Joules/Mol)
                                  234.30399 (Kcal/Mol)
 Warning -- explicit consideration of  32 degrees of freedom as
           vibrations may cause significant error
 Vibrational temperatures:     25.13    66.92    79.43   103.98   147.15
          (Kelvin)            184.51   201.53   252.21   264.89   278.03
                              340.42   386.63   403.45   413.65   424.13
                              452.84   458.96   467.39   479.73   521.75
                              552.47   589.73   607.80   637.06   640.57
                              690.75   723.21   752.45   783.91   810.23
                              821.99   880.66   906.70   915.05   934.06
                             1018.35  1028.99  1053.40  1079.44  1186.26
                             1217.55  1226.55  1243.67  1358.13  1402.62
                             1421.85  1430.73  1437.40  1464.04  1476.15
                             1491.90  1511.47  1533.48  1540.96  1557.61
                             1562.67  1568.61  1590.36  1593.88  1607.66
                             1609.85  1617.27  1640.57  1654.09  1669.54
                             1681.02  1695.74  1704.53  1712.93  1741.96
                             1759.71  1776.31  1778.22  1800.18  1813.91
                             1823.67  1843.01  1847.71  1874.90  1880.88
                             1883.31  1888.76  1893.80  1910.54  1926.81
                             1934.38  1944.02  1953.18  1969.67  1986.62
                             2002.50  2024.76  2041.36  2066.67  2076.34
                             2090.16  2126.91  2130.58  2139.13  2158.39
                             2176.20  4699.49  4703.78  4721.01  4721.55
                             4730.07  4731.64  4743.23  4744.31  4748.96
                             4758.50  4764.79  4769.49  4772.12  4781.91
                             4792.50  4798.00  4855.51  4870.92  4877.15
                             4894.15  5635.42  5644.80

 Zero-point correction=                           0.373387 (Hartree/Particle)
 Thermal correction to Energy=                    0.392544
 Thermal correction to Enthalpy=                  0.393489
 Thermal correction to Gibbs Free Energy=         0.325426
 Sum of electronic and zero-point Energies=          -1297.558878
 Sum of electronic and thermal Energies=             -1297.539720
 Sum of electronic and thermal Enthalpies=           -1297.538776
 Sum of electronic and thermal Free Energies=        -1297.606839

                     E (Thermal)             CV                S
                      KCal/Mol        Cal/Mol-Kelvin    Cal/Mol-Kelvin
 Total                  246.325             77.341            143.250
 Electronic               0.000              0.000              0.000
 Translational            0.889              2.981             43.384
 Rotational               0.889              2.981             35.109
 Vibrational            244.548             71.379             64.756
 Vibration     1          0.593              1.986              6.903
 Vibration     2          0.595              1.979              4.960
 Vibration     3          0.596              1.975              4.622
 Vibration     4          0.598              1.967              4.091
 Vibration     5          0.604              1.947              3.411
 Vibration     6          0.611              1.925              2.972
 Vibration     7          0.615              1.913              2.803
 Vibration     8          0.627              1.873              2.378
 Vibration     9          0.631              1.861              2.286
 Vibration    10          0.635              1.849              2.197
 Vibration    11          0.655              1.785              1.828
 Vibration    12          0.673              1.731              1.604
 Vibration    13          0.680              1.710              1.531
 Vibration    14          0.685              1.697              1.489
 Vibration    15          0.689              1.683              1.446
 Vibration    16          0.702              1.646              1.337
 Vibration    17          0.705              1.637              1.315
 Vibration    18          0.709              1.626              1.286
 Vibration    19          0.715              1.609              1.243
 Vibration    20          0.736              1.549              1.111
 Vibration    21          0.753              1.504              1.023
 Vibration    22          0.774              1.449              0.927
 Vibration    23          0.785              1.421              0.884
 Vibration    24          0.802              1.377              0.818
 Vibration    25          0.805              1.371              0.810
 Vibration    26          0.836              1.294              0.710
 Vibration    27          0.858              1.244              0.652
 Vibration    28          0.878              1.199              0.603
 Vibration    29          0.900              1.151              0.555
 Vibration    30          0.919              1.111              0.518
 Vibration    31          0.927              1.093              0.502
 Vibration    32          0.971              1.006              0.429

 Normal termination of Gaussian 09 at Tue Mar  1 15:48:45 2016.
