 Gaussian 09, Revision B.01,
 Gaussian 09:  EM64L-G09RevB.01 12-Aug-2010

 -------------------------------------------------
 # freq=raman b3lyp/6-31+g(2d,p) geom=connectivity
 -------------------------------------------------

 -----------------
 450 5915/5915.com
 -----------------
 Symbolic Z-matrix:
 Charge =  0 Multiplicity = 1

                         Standard orientation:
 ---------------------------------------------------------------------
 Center     Atomic      Atomic             Coordinates (Angstroms)
 Number     Number       Type             X           Y           Z
 ---------------------------------------------------------------------
      1          8           0        4.963141   -0.639482   -0.739592
      2          6           0        3.868236   -0.253730    0.104600
      3          6           0        3.429168    1.081882   -0.472040
      4          8           0        4.391085    2.092949   -0.137496
      5          1           0        5.223135    1.753654   -0.577401
      6          6           0        2.154208    1.600406    0.172664
      7          8           0        1.642947    2.835606   -0.347769
      8          1           0        2.220874    3.489374   -0.835769
      9          6           0        3.075093   -2.589577    0.565066
     10          8           0        2.024494   -3.556309    0.702521
     11          1           0        2.485891   -4.371270    1.055757
     12          6           0        2.739001   -1.254722   -0.079196
     13          8           0        1.569114   -0.616321    0.451462
     14          6           0        1.093174    0.575818   -0.191760
     15          8           0       -0.142039    0.735626    0.522310
     16          6           0       -1.399510    0.365493   -0.061550
     17          6           0       -1.859618   -1.076505    0.077763
     18          8           0       -0.933955   -2.042586   -0.442465
     19          1           0       -0.011967   -1.657489   -0.463912
     20          6           0       -3.206133   -1.343926   -0.573398
     21          8           0       -3.571578   -2.731337   -0.534387
     22          1           0       -2.910807   -3.183746   -1.133794
     23          6           0       -2.120595    2.540778    0.818828
     24          8           0       -2.388650    3.469465   -0.241180
     25          1           0       -1.812994    4.286179   -0.283984
     26          6           0       -2.490512    1.068648    0.729946
     27          8           0       -3.807040    0.819114    0.217608
     28          6           0       -4.278161   -0.534436    0.136619
     29          8           0       -5.540723   -0.469973   -0.542881
     30          1           0       -6.158777    0.047314   -0.021323
     31          1           0       -1.066847    2.580419    1.000331
     32          1           0       -2.605591    2.925336    1.691636
     33          1           0       -2.462341    0.675784    1.724815
     34          1           0       -1.435812    0.668135   -1.087215
     35          1           0       -1.968136   -1.272416    1.124063
     36          1           0       -3.160352   -1.030545   -1.595453
     37          1           0       -4.423114   -0.921703    1.123489
     38          1           0        5.789619   -0.358362   -0.340211
     39          1           0        3.461351   -2.389500    1.542652
     40          1           0        3.856481   -3.039789   -0.010819
     41          1           0        2.592700   -1.412947   -1.127271
     42          1           0        4.165561   -0.167469    1.128835
     43          1           0        3.311757    1.013443   -1.533375
     44          1           0        2.267095    1.658466    1.235107
     45          1           0        0.961818    0.452340   -1.246463
 ---------------------------------------------------------------------

 SCF Done:  E(RB3LYP) =  -1297.96649816     A.U. after   14 cycles

 The electronic state is 1-A.
 Alpha  occ. eigenvalues --  -19.19318 -19.18752 -19.17742 -19.17462 -19.16729
 Alpha  occ. eigenvalues --  -19.16617 -19.15293 -19.15180 -19.14441 -19.14197
 Alpha  occ. eigenvalues --  -19.13827 -10.31196 -10.28545 -10.27132 -10.26682
 Alpha  occ. eigenvalues --  -10.26509 -10.26193 -10.25029 -10.24379 -10.24315
 Alpha  occ. eigenvalues --  -10.23420 -10.23206 -10.21742  -1.10019  -1.07941
 Alpha  occ. eigenvalues --   -1.06522  -1.05361  -1.03777  -1.02863  -1.02666
 Alpha  occ. eigenvalues --   -1.02122  -1.00541  -0.99851  -0.99529  -0.82666
 Alpha  occ. eigenvalues --   -0.81692  -0.79090  -0.77438  -0.72079  -0.69564
 Alpha  occ. eigenvalues --   -0.67598  -0.64284  -0.63672  -0.62828  -0.60768
 Alpha  occ. eigenvalues --   -0.59780  -0.57470  -0.56197  -0.55157  -0.53994
 Alpha  occ. eigenvalues --   -0.53177  -0.53063  -0.52684  -0.52002  -0.51121
 Alpha  occ. eigenvalues --   -0.49656  -0.49230  -0.49139  -0.46835  -0.46756
 Alpha  occ. eigenvalues --   -0.46169  -0.45061  -0.44151  -0.43648  -0.43182
 Alpha  occ. eigenvalues --   -0.43052  -0.42427  -0.40692  -0.40080  -0.39928
 Alpha  occ. eigenvalues --   -0.39027  -0.37285  -0.36797  -0.36206  -0.35813
 Alpha  occ. eigenvalues --   -0.35275  -0.34854  -0.33455  -0.33084  -0.32611
 Alpha  occ. eigenvalues --   -0.32091  -0.31023  -0.30911  -0.30100  -0.29393
 Alpha  occ. eigenvalues --   -0.29135  -0.28692  -0.27872  -0.26826  -0.26321
 Alpha  occ. eigenvalues --   -0.25433
 Alpha virt. eigenvalues --   -0.03851  -0.01935  -0.01159  -0.00416   0.00937
 Alpha virt. eigenvalues --    0.01191   0.01617   0.02272   0.02413   0.03312
 Alpha virt. eigenvalues --    0.03786   0.04409   0.04720   0.04988   0.05503

 Mulliken atomic charges:
              1
     1  O   -0.555881
     2  C    0.042499
     3  C    0.160980
     4  O   -0.547966
     5  H    0.318229
     6  C   -0.249618
     7  O   -0.579353
     8  H    0.348144
     9  C   -0.423877
    10  O   -0.487727
    11  H    0.335387
    12  C    0.200875
    13  O   -0.228661
    14  C    0.449041
    15  O   -0.251564
    16  C    0.061803
    17  C    0.321083
    18  O   -0.596843
    19  H    0.362417
    20  C   -0.044781
    21  O   -0.509008
    22  H    0.345047
    23  C   -0.447439
    24  O   -0.528979
    25  H    0.335880
    26  C    0.180423
    27  O   -0.299862
    28  C    0.264386
    29  O   -0.502366
    30  H    0.325443
    31  H    0.175593
    32  H    0.120671
    33  H    0.119315
    34  H    0.128104
    35  H    0.110082
    36  H    0.123093
    37  H    0.121096
    38  H    0.329473
    39  H    0.129939
    40  H    0.160928
    41  H    0.120010
    42  H    0.134738
    43  H    0.137086
    44  H    0.148509
    45  H    0.143653
 Sum of Mulliken atomic charges =   0.00000

 Dipole moment (field-independent basis, Debye):
    X=              9.3603    Y=              0.8550    Z=              0.9981  Tot=              9.4521
 Quadrupole moment (field-independent basis, Debye-Ang):
   XX=           -122.5409   YY=           -137.5598   ZZ=           -134.0968
   XY=             -8.8954   XZ=             -8.9055   YZ=             -3.4827

  Exact polarizability: 226.742   3.557 201.025  -1.875  -0.527 147.933
 Approx polarizability: 270.955   3.549 262.419  -2.297  -0.941 241.185

 ******    7 imaginary frequencies (negative Signs) ******

                     1                      2                      3
                     A                      A                      A
 Frequencies --  -273.2827              -247.8824              -238.5259
 Red. masses --     1.7701                 1.1054                 2.1236
 Frc consts  --     0.0779                 0.0400                 0.0712
 IR Inten    --     2.7493               128.8903                10.9526
 Raman Activ --     0.1139                 1.4992                 0.0656

                     4                      5                      6
                     A                      A                      A
 Frequencies --  -112.1690               -80.6843               -66.1398
 Red. masses --     1.4386                 6.2392                 5.6754
 Frc consts  --     0.0107                 0.0239                 0.0146
 IR Inten    --   115.2841                 1.3626                 0.8517
 Raman Activ --     0.9402                 0.1949                 0.0727

                     7                      8                      9
                     A                      A                      A
 Frequencies --   -36.4303                25.0032                34.7048
 Red. masses --     6.7126                 6.9463                 6.4196
 Frc consts  --     0.0052                 0.0026                 0.0046
 IR Inten    --     0.8333                 1.2564                 0.8670
 Raman Activ --     0.1164                 0.1034                 0.0116

                    10                     11                     12
                     A                      A                      A
 Frequencies --    53.2237                71.4258               117.5141
 Red. masses --     6.3026                 6.1960                 5.6216
 Frc consts  --     0.0105                 0.0186                 0.0457
 IR Inten    --     2.7320                 2.2836                 1.4625
 Raman Activ --     0.0255                 0.1174                 0.2182

                    13                     14                     15
                     A                      A                      A
 Frequencies --   124.0775               145.4814               164.4064
 Red. masses --     6.0395                 7.4712                 6.2074
 Frc consts  --     0.0548                 0.0932                 0.0989
 IR Inten    --     1.8698                 4.8000                 4.7775
 Raman Activ --     0.4817                 0.8853                 0.6990

                    16                     17                     18
                     A                      A                      A
 Frequencies --   205.2460               219.5917               253.4684
 Red. masses --     5.3597                 6.0482                 4.7712
 Frc consts  --     0.1330                 0.1718                 0.1806
 IR Inten    --     0.5733                 0.1623                 9.6504
 Raman Activ --     0.6811                 1.9101                 0.6767

                    19                     20                     21
                     A                      A                      A
 Frequencies --   259.3416               270.8045               284.0040
 Red. masses --     4.3739                 4.7793                 4.2751
 Frc consts  --     0.1733                 0.2065                 0.2032
 IR Inten    --     5.4551                 3.7643                14.2728
 Raman Activ --     0.2280                 0.0908                 1.2909

                    22                     23                     24
                     A                      A                      A
 Frequencies --   302.9476               307.1282               327.2737
 Red. masses --     4.8238                 5.0048                 5.7516
 Frc consts  --     0.2608                 0.2781                 0.3630
 IR Inten    --    12.3688                 2.0082                 3.8606
 Raman Activ --     0.4454                 0.2204                 4.1189

                    25                     26                     27
                     A                      A                      A
 Frequencies --   341.6517               369.4539               380.7155
 Red. masses --     4.7786                 4.7208                 5.3837
 Frc consts  --     0.3286                 0.3797                 0.4598
 IR Inten    --     9.8869                 8.2511                 0.7853
 Raman Activ --     3.8970                 1.5292                 2.3412

                    28                     29                     30
                     A                      A                      A
 Frequencies --   396.2866               418.7259               440.9437
 Red. masses --     5.1276                 4.8940                 5.7723
 Frc consts  --     0.4744                 0.5056                 0.6613
 IR Inten    --    22.2557                 1.9593                 2.2545
 Raman Activ --     1.8067                 2.5519                 1.7518

                    31                     32                     33
                     A                      A                      A
 Frequencies --   464.8452               485.3344               507.0208
 Red. masses --     5.0898                 3.4991                 4.3082
 Frc consts  --     0.6480                 0.4856                 0.6525
 IR Inten    --     6.3453                 9.0984                15.8000
 Raman Activ --     0.9724                 2.9910                 5.6358

                    34                     35                     36
                     A                      A                      A
 Frequencies --   531.8436               540.1442               551.0802
 Red. masses --     3.2626                 3.1130                 3.2027
 Frc consts  --     0.5437                 0.5351                 0.5731
 IR Inten    --    37.6879                 9.2268                20.7392
 Raman Activ --     1.5857                 1.7377                 2.3935

                    37                     38                     39
                     A                      A                      A
 Frequencies --   575.2900               604.1720               610.2985
 Red. masses --     4.0617                 1.2736                 2.5831
 Frc consts  --     0.7920                 0.2739                 0.5669
 IR Inten    --    23.8932                91.2386                 8.8332
 Raman Activ --     1.5402                 0.5165                 0.6756

                    40                     41                     42
                     A                      A                      A
 Frequencies --   616.7624               639.9058               656.0115
 Red. masses --     2.1195                 1.6286                 3.9268
 Frc consts  --     0.4750                 0.3929                 0.9957
 IR Inten    --    41.0004                86.6962                11.8596
 Raman Activ --     0.6406                 2.4662                 0.7428

                    43                     44                     45
                     A                      A                      A
 Frequencies --   658.1466               704.6702               719.3913
 Red. masses --     1.1975                 3.3823                 1.1049
 Frc consts  --     0.3056                 0.9896                 0.3369
 IR Inten    --    29.3097                 4.0588                95.4604
 Raman Activ --     0.5521                 0.9778                 2.1113

                    46                     47                     48
                     A                      A                      A
 Frequencies --   736.7008               797.0521               836.3306
 Red. masses --     1.1207                 1.1120                 2.6211
 Frc consts  --     0.3584                 0.4162                 1.0801
 IR Inten    --   125.4671                72.0058                21.4816
 Raman Activ --     1.3377                 1.8656                 5.6288

                    49                     50                     51
                     A                      A                      A
 Frequencies --   852.7727               884.4316               908.7261
 Red. masses --     2.9881                 2.2612                 5.6589
 Frc consts  --     1.2803                 1.0421                 2.7533
 IR Inten    --    18.7079                11.8953               171.1744
 Raman Activ --     3.2585                 1.0865                 3.5852

                    52                     53                     54
                     A                      A                      A
 Frequencies --   947.5075               970.0573               975.8342
 Red. masses --     6.6155                 5.4287                 5.3844
 Frc consts  --     3.4993                 3.0098                 3.0209
 IR Inten    --   253.3894                42.3575                46.6592
 Raman Activ --     1.7646                 1.4034                 2.6186

                    55                     56                     57
                     A                      A                      A
 Frequencies --   992.5910              1011.6947              1017.9960
 Red. masses --     4.8243                 5.0338                 4.3365
 Frc consts  --     2.8004                 3.0356                 2.6478
 IR Inten    --   141.5827               202.1091               151.0471
 Raman Activ --     2.9074                 0.4291                 5.1980

                    58                     59                     60
                     A                      A                      A
 Frequencies --  1033.6366              1040.2527              1050.5509
 Red. masses --     2.7511                 2.2338                 5.3885
 Frc consts  --     1.7318                 1.4242                 3.5039
 IR Inten    --   210.5137                53.3816               117.5108
 Raman Activ --     1.5526                 9.7559                 2.4697

                    61                     62                     63
                     A                      A                      A
 Frequencies --  1054.5075              1061.6062              1066.9882
 Red. masses --     3.1966                 4.1262                 3.8647
 Frc consts  --     2.0943                 2.7398                 2.5923
 IR Inten    --    12.6590                71.3174               216.2405
 Raman Activ --     3.5963                 0.5945                15.0159

                    64                     65                     66
                     A                      A                      A
 Frequencies --  1078.2774              1089.9383              1094.3600
 Red. masses --     3.5452                 2.4535                 3.7110
 Frc consts  --     2.4286                 1.7173                 2.6186
 IR Inten    --    30.4451                11.3298                54.7412
 Raman Activ --     5.3641                14.6042                 2.8053

                    67                     68                     69
                     A                      A                      A
 Frequencies --  1106.1874              1112.7834              1132.2694
 Red. masses --     2.7158                 2.4700                 2.3703
 Frc consts  --     1.9580                 1.8020                 1.7904
 IR Inten    --     4.3625                33.7445                 3.0272
 Raman Activ --     8.6996                 3.9934                 3.6497

                    70                     71                     72
                     A                      A                      A
 Frequencies --  1133.0804              1150.3937              1157.0924
 Red. masses --     2.4817                 2.3643                 3.3426
 Frc consts  --     1.8773                 1.8435                 2.6368
 IR Inten    --    74.6229                28.3018                16.9630
 Raman Activ --     3.9901                 0.0518                 2.0660

                    73                     74                     75
                     A                      A                      A
 Frequencies --  1158.7400              1162.4209              1182.4156
 Red. masses --     1.8699                 1.7939                 1.5367
 Frc consts  --     1.4792                 1.4281                 1.2659
 IR Inten    --    11.8786                17.3827                 6.7924
 Raman Activ --     2.6848                 2.9559                 1.2065

                    76                     77                     78
                     A                      A                      A
 Frequencies --  1185.3436              1201.3157              1208.9167
 Red. masses --     2.4179                 1.3687                 1.2509
 Frc consts  --     2.0016                 1.1638                 1.0771
 IR Inten    --    26.2847                 2.1320                 2.6945
 Raman Activ --     0.7493                 4.1335                 3.1918

                    79                     80                     81
                     A                      A                      A
 Frequencies --  1211.6263              1243.3495              1251.1960
 Red. masses --     1.3197                 1.2192                 1.1474
 Frc consts  --     1.1415                 1.1105                 1.0583
 IR Inten    --    17.8730                18.3396                 6.0464
 Raman Activ --     0.4099                 1.5757                 3.3129

                    82                     83                     84
                     A                      A                      A
 Frequencies --  1258.3854              1261.6702              1267.5582
 Red. masses --     1.2581                 1.2134                 1.3293
 Frc consts  --     1.1738                 1.1380                 1.2584
 IR Inten    --     8.3941                78.7868                47.1912
 Raman Activ --     1.2481                 7.1516                 3.3205

                    85                     86                     87
                     A                      A                      A
 Frequencies --  1275.0975              1282.5456              1304.3225
 Red. masses --     1.1466                 1.2223                 1.4551
 Frc consts  --     1.0984                 1.1846                 1.4585
 IR Inten    --    10.5566                11.8206                 7.1417
 Raman Activ --     4.5618                 3.7169                 1.5272

                    88                     89                     90
                     A                      A                      A
 Frequencies --  1310.6252              1313.5562              1326.7140
 Red. masses --     1.2331                 1.2212                 1.3680
 Frc consts  --     1.2480                 1.2415                 1.4187
 IR Inten    --     9.6043                 5.8224                20.0031
 Raman Activ --     8.5545                 2.4100                 0.6709

                    91                     92                     93
                     A                      A                      A
 Frequencies --  1326.9998              1328.7154              1335.4189
 Red. masses --     1.2485                 1.2297                 1.3086
 Frc consts  --     1.2953                 1.2791                 1.3750
 IR Inten    --     5.2582                11.3628                32.9865
 Raman Activ --     6.4713                 2.3691                 2.5266

                    94                     95                     96
                     A                      A                      A
 Frequencies --  1343.4893              1357.0666              1364.4807
 Red. masses --     1.3233                 1.1676                 1.2829
 Frc consts  --     1.4073                 1.2670                 1.4073
 IR Inten    --    23.9633                12.9763                27.7871
 Raman Activ --     7.2694                 7.3005                 0.7296

                    97                     98                     99
                     A                      A                      A
 Frequencies --  1370.4772              1380.0705              1386.1045
 Red. masses --     1.5560                 1.7104                 1.4851
 Frc consts  --     1.7219                 1.9193                 1.6812
 IR Inten    --    47.0588                10.0956                10.0206
 Raman Activ --     2.4621                 5.4310                 2.3555

                   100                    101                    102
                     A                      A                      A
 Frequencies --  1393.2461              1439.4761              1450.7950
 Red. masses --     1.4945                 1.3288                 1.3492
 Frc consts  --     1.7093                 1.6223                 1.6732
 IR Inten    --     8.0985                10.6635                17.9643
 Raman Activ --     5.0325                 0.9585                 1.6411

                   103                    104                    105
                     A                      A                      A
 Frequencies --  1462.5469              1464.3855              1480.2974
 Red. masses --     1.0868                 1.3698                 1.0776
 Frc consts  --     1.3697                 1.7306                 1.3913
 IR Inten    --     4.4575                39.5217                14.4079
 Raman Activ --     5.4084                 2.1806                 4.5745

                   106                    107                    108
                     A                      A                      A
 Frequencies --  1484.8252              1486.5085              3253.4117
 Red. masses --     1.4161                 1.3720                 1.0682
 Frc consts  --     1.8395                 1.7862                 6.6617
 IR Inten    --    75.2887                14.5191                51.6010
 Raman Activ --     2.6688                 1.0529                99.8410

                   109                    110                    111
                     A                      A                      A
 Frequencies --  3255.6099              3264.1769              3274.0136
 Red. masses --     1.0586                 1.0805                 1.0834
 Frc consts  --     6.6106                 6.7833                 6.8423
 IR Inten    --    40.6326                 8.3918                 7.1615
 Raman Activ --   100.8624                 7.3324                35.9721

                   112                    113                    114
                     A                      A                      A
 Frequencies --  3275.4882              3279.5942              3287.8704
 Red. masses --     1.0832                 1.0804                 1.0852
 Frc consts  --     6.8472                 6.8468                 6.9118
 IR Inten    --     4.7688                36.2476                 7.7895
 Raman Activ --    36.4828               265.6448                41.1062

                   115                    116                    117
                     A                      A                      A
 Frequencies --  3289.3844              3296.1414              3300.5375
 Red. masses --     1.0855                 1.0863                 1.0868
 Frc consts  --     6.9203                 6.9535                 6.9751
 IR Inten    --    12.5094                 2.6851                71.4806
 Raman Activ --     9.7912               118.8973                10.7469

                   118                    119                    120
                     A                      A                      A
 Frequencies --  3301.2165              3310.1270              3314.4588
 Red. masses --     1.0894                 1.0972                 1.0973
 Frc consts  --     6.9947                 7.0834                 7.1025
 IR Inten    --    12.3902                 9.0722                 4.2175
 Raman Activ --    17.9296                33.7033                46.4779

                   121                    122                    123
                     A                      A                      A
 Frequencies --  3314.9648              3354.1541              3358.5379
 Red. masses --     1.0917                 1.0645                 1.0665
 Frc consts  --     7.0680                 7.0562                 7.0877
 IR Inten    --    72.1336                19.6250                51.1519
 Raman Activ --    28.1296               128.6995               182.3556

                   124                    125                    126
                     A                      A                      A
 Frequencies --  3360.4737              3367.4755              3374.2274
 Red. masses --     1.0668                 1.0692                 1.0655
 Frc consts  --     7.0977                 7.1435                 7.1473
 IR Inten    --   229.9976                54.5037                47.5023
 Raman Activ --   146.6840               123.3378                48.7959

                   127                    128                    129
                     A                      A                      A
 Frequencies --  3374.3657              3881.5009              3890.6731
 Red. masses --     1.0681                 1.0672                 1.0666
 Frc consts  --     7.1658                 9.4732                 9.5129
 IR Inten    --    49.4799                48.3211                65.1253
 Raman Activ --   162.1642               115.1603               130.3789

 - Thermochemistry -
 -------------------
 Temperature   298.150 Kelvin.  Pressure   1.00000 Atm.
 Atom     1 has atomic number  8 and mass  15.99491

 Molecular mass:   342.11621 amu.
 Principal axes and moments of inertia in atomic units:
                           1         2         3
     Eigenvalues --  4632.30550********************
           X            0.99997  -0.00714  -0.00217
           Y            0.00713   0.99997  -0.00037
           Z            0.00217   0.00035   1.00000
 This molecule is an asymmetric top.
 Rotational symmetry number  1.
 Warning -- assumption of classical behavior for rotation
           may cause significant error
 Rotational temperatures (Kelvin)      0.01870     0.00724     0.00544
 Rotational constants (GHZ):           0.38960     0.15092     0.11338
    7 imaginary frequencies ignored.
 Zero-point vibrational energy     968443.2 (Joules/Mol)
                                  231.46348 (Kcal/Mol)
 Warning -- explicit consideration of  33 degrees of freedom as
           vibrations may cause significant error
 Vibrational temperatures:     35.97    49.93    76.58   102.77   169.08
          (Kelvin)            178.52   209.31   236.54   295.30   315.94
                              364.68   373.13   389.63   408.62   435.87
                              441.89   470.87   491.56   531.56   547.76
                              570.17   602.45   634.42   668.81   698.29
                              729.49   765.20   777.15   792.88   827.71
                              869.27   878.08   887.38   920.68   943.85
                              946.92  1013.86  1035.04  1059.95  1146.78
                             1203.29  1226.95  1272.50  1307.45  1363.25
                             1395.69  1404.01  1428.12  1455.60  1464.67
                             1487.17  1496.69  1511.51  1517.20  1527.41
                             1535.16  1551.40  1568.18  1574.54  1591.55
                             1601.05  1629.08  1630.25  1655.16  1664.80
                             1667.17  1672.46  1701.23  1705.44  1728.42
                             1739.36  1743.26  1788.90  1800.19  1810.53
                             1815.26  1823.73  1834.58  1845.29  1876.63
                             1885.70  1889.91  1908.84  1909.25  1911.72
                             1921.37  1932.98  1952.51  1963.18  1971.81
                             1985.61  1994.29  2004.57  2071.08  2087.37
                             2104.28  2106.92  2129.82  2136.33  2138.75
                             4680.93  4684.09  4696.42  4710.57  4712.69
                             4718.60  4730.51  4732.68  4742.41  4748.73
                             4749.71  4762.53  4768.76  4769.49  4825.87
                             4832.18  4834.97  4845.04  4854.75  4854.95
                             5584.61  5597.80

 Zero-point correction=                           0.368861 (Hartree/Particle)
 Thermal correction to Energy=                    0.387775
 Thermal correction to Enthalpy=                  0.388720
 Thermal correction to Gibbs Free Energy=         0.321277
 Sum of electronic and zero-point Energies=          -1297.597638
 Sum of electronic and thermal Energies=             -1297.578723
 Sum of electronic and thermal Enthalpies=           -1297.577779
 Sum of electronic and thermal Free Energies=        -1297.645221

                     E (Thermal)             CV                S
                      KCal/Mol        Cal/Mol-Kelvin    Cal/Mol-Kelvin
 Total                  243.333             77.148            141.944
 Electronic               0.000              0.000              0.000
 Translational            0.889              2.981             43.384
 Rotational               0.889              2.981             35.132
 Vibrational            241.555             71.186             63.428
 Vibration     1          0.593              1.985              6.191
 Vibration     2          0.594              1.983              5.541
 Vibration     3          0.596              1.976              4.694
 Vibration     4          0.598              1.968              4.114
 Vibration     5          0.608              1.935              3.141
 Vibration     6          0.610              1.929              3.036
 Vibration     7          0.617              1.908              2.731
 Vibration     8          0.623              1.886              2.498
 Vibration     9          0.640              1.832              2.086
 Vibration    10          0.647              1.811              1.962
 Vibration    11          0.665              1.757              1.706
 Vibration    12          0.668              1.747              1.666
 Vibration    13          0.674              1.727              1.591
 Vibration    14          0.682              1.703              1.509
 Vibration    15          0.694              1.668              1.401
 Vibration    16          0.697              1.660              1.378
 Vibration    17          0.711              1.621              1.274
 Vibration    18          0.721              1.592              1.204
 Vibration    19          0.742              1.535              1.082
 Vibration    20          0.750              1.511              1.036
 Vibration    21          0.763              1.478              0.976
 Vibration    22          0.782              1.430              0.896
 Vibration    23          0.801              1.381              0.824
 Vibration    24          0.822              1.328              0.752
 Vibration    25          0.841              1.283              0.696
 Vibration    26          0.862              1.234              0.641
 Vibration    27          0.887              1.180              0.583
 Vibration    28          0.895              1.161              0.565
 Vibration    29          0.906              1.137              0.542
 Vibration    30          0.932              1.085              0.494
 Vibration    31          0.963              1.023              0.443
 Vibration    32          0.969              1.010              0.432
 Vibration    33          0.976              0.996              0.422

 Normal termination of Gaussian 09 at Mon Mar 28 11:26:42 2016.
