 Gaussian 09, Revision B.01,
 Gaussian 09:  EM64L-G09RevB.01 12-Aug-2010

 ------------------------------------------------
 # freq=raman b3lyp/6-31+g(d,p) geom=connectivity
 ------------------------------------------------

 ------------
 450 7000.com
 ------------
 Symbolic Z-matrix:
 Charge =  0 Multiplicity = 1

                         Standard orientation:
 ---------------------------------------------------------------------
 Center     Atomic      Atomic             Coordinates (Angstroms)
 Number     Number       Type             X           Y           Z
 ---------------------------------------------------------------------
      1          8           0        5.075098   -0.487872   -0.793404
      2          6           0        3.901330   -0.064864   -0.084299
      3          6           0        3.257695    1.214795   -0.593428
      4          8           0        4.258393    2.243429   -0.604825
      5          1           0        5.140774    2.007560   -0.197979
      6          6           0        2.048637    1.605023    0.240537
      7          8           0        1.519382    2.891420   -0.112792
      8          1           0        2.224184    3.598880   -0.055635
      9          6           0        3.242729   -2.371583    0.588408
     10          8           0        2.313056   -3.430307    0.862011
     11          1           0        2.762924   -4.193648    1.326230
     12          6           0        2.779526   -1.091009   -0.087336
     13          8           0        1.604545   -0.712351    0.643620
     14          6           0        1.014217    0.495674    0.141426
     15          8           0       -0.230818    0.572592    0.850713
     16          6           0       -1.313318    0.237273   -0.029858
     17          6           0       -1.703552   -1.222163    0.142533
     18          8           0       -0.781559   -2.063341   -0.566092
     19          1           0        0.135471   -1.779314   -0.287746
     20          6           0       -3.047235   -1.424780   -0.539695
     21          8           0       -3.400390   -2.814560   -0.488841
     22          1           0       -2.630430   -3.320430   -0.877704
     23          6           0       -2.157008    2.593642    0.072617
     24          8           0       -3.203202    3.475621    0.502862
     25          1           0       -3.390772    3.579369    1.478969
     26          6           0       -2.491708    1.131495    0.319194
     27          8           0       -3.769871    0.763251   -0.218851
     28          6           0       -4.172850   -0.587748    0.045979
     29          8           0       -5.489655   -0.819821   -0.476159
     30          1           0        5.856977   -0.165974   -0.338819
     31          1           0       -6.137819   -0.393419    0.089231
     32          1           0       -1.259758    2.837118    0.602298
     33          1           0       -1.991213    2.738649   -0.974467
     34          1           0       -2.602589    1.042953    1.379744
     35          1           0       -1.018354    0.412253   -1.043406
     36          1           0       -1.752944   -1.489601    1.177394
     37          1           0       -2.936796   -1.150902   -1.568138
     38          1           0       -4.194891   -0.737870    1.105167
     39          1           0        3.683393   -2.091789    1.522448
     40          1           0        4.018667   -2.785150   -0.021332
     41          1           0        2.507199   -1.307733   -1.099151
     42          1           0        4.185792    0.100144    0.933912
     43          1           0        2.932510    1.050680   -1.599520
     44          1           0        2.365705    1.658905    1.261058
     45          1           0        0.791343    0.350298   -0.894959
 ---------------------------------------------------------------------

 SCF Done:  E(RB3LYP) =  -1297.92947094     A.U. after   13 cycles

 The electronic state is 1-A.
 Alpha  occ. eigenvalues --  -19.21021 -19.20678 -19.19766 -19.19645 -19.18558
 Alpha  occ. eigenvalues --  -19.17417 -19.16656 -19.16330 -19.16249 -19.15027
 Alpha  occ. eigenvalues --  -19.14606 -10.32365 -10.29374 -10.28782 -10.27933
 Alpha  occ. eigenvalues --  -10.27706 -10.27433 -10.25522 -10.25332 -10.24450
 Alpha  occ. eigenvalues --  -10.24391 -10.23705 -10.23111  -1.11274  -1.08328
 Alpha  occ. eigenvalues --   -1.06774  -1.05713  -1.05271  -1.03614  -1.03143
 Alpha  occ. eigenvalues --   -1.02817  -1.01330  -1.00045  -0.99918  -0.83907
 Alpha  occ. eigenvalues --   -0.82481  -0.79445  -0.77622  -0.72379  -0.69846
 Alpha  occ. eigenvalues --   -0.68291  -0.65536  -0.64656  -0.63757  -0.62194
 Alpha  occ. eigenvalues --   -0.60099  -0.58197  -0.56294  -0.55753  -0.54784
 Alpha  occ. eigenvalues --   -0.54341  -0.53623  -0.53130  -0.52539  -0.51424
 Alpha  occ. eigenvalues --   -0.50583  -0.49798  -0.49532  -0.48507  -0.47132
 Alpha  occ. eigenvalues --   -0.46356  -0.45351  -0.44866  -0.44533  -0.44402
 Alpha  occ. eigenvalues --   -0.43545  -0.42713  -0.41181  -0.40063  -0.39779
 Alpha  occ. eigenvalues --   -0.38684  -0.37874  -0.37626  -0.37216  -0.36198
 Alpha  occ. eigenvalues --   -0.35786  -0.35199  -0.34846  -0.33579  -0.33367
 Alpha  occ. eigenvalues --   -0.32765  -0.31351  -0.31202  -0.30753  -0.30376
 Alpha  occ. eigenvalues --   -0.29976  -0.29258  -0.29027  -0.27069  -0.26268
 Alpha  occ. eigenvalues --   -0.26187
 Alpha virt. eigenvalues --   -0.05411  -0.02085  -0.00825  -0.00602   0.00134
 Alpha virt. eigenvalues --    0.01147   0.01448   0.01852   0.02869   0.02999
 Alpha virt. eigenvalues --    0.03422   0.04450   0.04619   0.05242   0.05637

 Mulliken atomic charges:
              1
     1  O   -0.483650
     2  C   -0.470135
     3  C    0.159891
     4  O   -0.550596
     5  H    0.340947
     6  C   -0.049322
     7  O   -0.485804
     8  H    0.377747
     9  C   -0.227952
    10  O   -0.556713
    11  H    0.361475
    12  C    0.434932
    13  O   -0.388766
    14  C    0.298232
    15  O   -0.282323
    16  C    0.131553
    17  C   -0.076517
    18  O   -0.573594
    19  H    0.423830
    20  C   -0.045322
    21  O   -0.483025
    22  H    0.367758
    23  C    0.118054
    24  O   -0.543887
    25  H    0.345821
    26  C   -0.289944
    27  O   -0.318774
    28  C    0.350423
    29  O   -0.499749
    30  H    0.352927
    31  H    0.351817
    32  H    0.166375
    33  H    0.145781
    34  H    0.116531
    35  H    0.129469
    36  H    0.155158
    37  H    0.145445
    38  H    0.108340
    39  H    0.118733
    40  H    0.151567
    41  H    0.150129
    42  H    0.134113
    43  H    0.153148
    44  H    0.135731
    45  H    0.100148
 Sum of Mulliken atomic charges =   0.00000

 Dipole moment (field-independent basis, Debye):
    X=              9.5259    Y=              0.7079    Z=              4.1544  Tot=             10.4165
 Quadrupole moment (field-independent basis, Debye-Ang):
   XX=           -119.7680   YY=           -148.4938   ZZ=           -136.3620
   XY=             -6.4577   XZ=             -2.8849   YZ=              3.0524

  Exact polarizability: 223.253   1.468 192.783  -2.450   0.780 143.483
 Approx polarizability: 264.946   1.405 246.888  -1.928   1.278 233.514

 ******    6 imaginary frequencies (negative Signs) ******

                     1                      2                      3
                     A                      A                      A
 Frequencies --  -345.8063              -298.5789              -295.0527
 Red. masses --     1.1352                 1.0779                 1.7397
 Frc consts  --     0.0800                 0.0566                 0.0892
 IR Inten    --   101.0494               130.7439                 5.0441
 Raman Activ --     0.8529                 1.5347                 0.0959

                     4                      5                      6
                     A                      A                      A
 Frequencies --  -137.2913               -74.9771               -31.3921
 Red. masses --     1.9066                 6.5846                 6.7584
 Frc consts  --     0.0212                 0.0218                 0.0039
 IR Inten    --     5.8864                 0.3031                 0.2869
 Raman Activ --     0.1273                 0.1056                 0.0213

                     7                      8                      9
                     A                      A                      A
 Frequencies --    27.2411                46.4284                49.0497
 Red. masses --     6.6245                 6.8396                 5.3046
 Frc consts  --     0.0029                 0.0087                 0.0075
 IR Inten    --     0.8717                 0.1172                 2.3541
 Raman Activ --     0.0942                 0.0127                 0.0986

                    10                     11                     12
                     A                      A                      A
 Frequencies --    70.4749                90.6412               109.6888
 Red. masses --     7.1621                 6.7508                 6.6800
 Frc consts  --     0.0210                 0.0327                 0.0474
 IR Inten    --     1.7574                 1.4559                 3.8426
 Raman Activ --     0.1455                 0.1164                 0.4504

                    13                     14                     15
                     A                      A                      A
 Frequencies --   136.7402               147.7804               175.0608
 Red. masses --     6.0252                 6.8456                 6.9093
 Frc consts  --     0.0664                 0.0881                 0.1248
 IR Inten    --     1.4357                 0.9932                 2.5441
 Raman Activ --     0.1213                 0.3968                 0.8882

                    16                     17                     18
                     A                      A                      A
 Frequencies --   201.0366               210.6255               266.1695
 Red. masses --     5.2387                 6.9483                 5.2187
 Frc consts  --     0.1247                 0.1816                 0.2178
 IR Inten    --     3.3004                 2.3738                 7.3687
 Raman Activ --     0.2853                 1.9263                 0.5439

                    19                     20                     21
                     A                      A                      A
 Frequencies --   277.6209               280.1694               295.8285
 Red. masses --     5.3657                 6.2658                 4.4400
 Frc consts  --     0.2437                 0.2898                 0.2289
 IR Inten    --     1.1584                 6.4892                19.5878
 Raman Activ --     0.2300                 0.8818                 0.5844

                    22                     23                     24
                     A                      A                      A
 Frequencies --   304.7840               317.2378               337.8494
 Red. masses --     5.3256                 5.4656                 7.0710
 Frc consts  --     0.2915                 0.3241                 0.4755
 IR Inten    --     2.2037                 5.6109                 0.2516
 Raman Activ --     0.1656                 0.4199                 4.8854

                    25                     26                     27
                     A                      A                      A
 Frequencies --   349.0862               368.1275               378.8048
 Red. masses --     5.9420                 7.2957                 4.1181
 Frc consts  --     0.4266                 0.5825                 0.3482
 IR Inten    --    12.0868                 1.2343                 5.0880
 Raman Activ --     3.9103                 1.5467                 0.7575

                    28                     29                     30
                     A                      A                      A
 Frequencies --   409.8683               416.6634               426.0709
 Red. masses --     5.9687                 5.2942                 6.3904
 Frc consts  --     0.5908                 0.5415                 0.6835
 IR Inten    --     8.5537                 7.6988                 3.6893
 Raman Activ --     5.9284                 1.6897                 2.1916

                    31                     32                     33
                     A                      A                      A
 Frequencies --   435.8840               475.3101               488.2630
 Red. masses --     3.5455                 4.0437                 2.9732
 Frc consts  --     0.3969                 0.5383                 0.4176
 IR Inten    --    26.0825                 9.6243                28.8294
 Raman Activ --     2.6203                 0.7046                 1.4605

                    34                     35                     36
                     A                      A                      A
 Frequencies --   521.0548               531.3985               546.6140
 Red. masses --     2.4124                 2.5556                 3.1947
 Frc consts  --     0.3859                 0.4252                 0.5624
 IR Inten    --    42.0341                17.7430                 8.3743
 Raman Activ --     5.9367                 2.2592                 2.1130

                    37                     38                     39
                     A                      A                      A
 Frequencies --   558.1293               580.1279               597.5455
 Red. masses --     3.7450                 1.3732                 2.6802
 Frc consts  --     0.6873                 0.2723                 0.5638
 IR Inten    --     7.6442               106.4348                 9.3658
 Raman Activ --     3.3288                 0.5064                 0.2856

                    40                     41                     42
                     A                      A                      A
 Frequencies --   601.8188               618.8420               644.0270
 Red. masses --     2.0818                 2.9157                 1.0630
 Frc consts  --     0.4442                 0.6579                 0.2598
 IR Inten    --    49.0086                 8.3762               126.5696
 Raman Activ --     1.0430                 0.6469                 2.4227

                    43                     44                     45
                     A                      A                      A
 Frequencies --   650.1794               674.1513               694.9968
 Red. masses --     4.6448                 2.8685                 1.0912
 Frc consts  --     1.1569                 0.7681                 0.3105
 IR Inten    --    13.3749                 8.2764               143.3688
 Raman Activ --     0.2465                 0.2367                 2.2370

                    46                     47                     48
                     A                      A                      A
 Frequencies --   740.7122               797.8184               830.2277
 Red. masses --     1.0822                 1.0759                 2.4397
 Frc consts  --     0.3498                 0.4035                 0.9908
 IR Inten    --   143.4561                44.3401                 3.0900
 Raman Activ --     1.6202                 0.5057                 2.2048

                    49                     50                     51
                     A                      A                      A
 Frequencies --   859.3547               950.2109               969.2481
 Red. masses --     2.5479                 6.2582                 5.7245
 Frc consts  --     1.1086                 3.3292                 3.1685
 IR Inten    --     3.1858               187.8944               180.4420
 Raman Activ --     3.9243                 0.4975                 2.1607

                    52                     53                     54
                     A                      A                      A
 Frequencies --   975.3271               988.4884               996.6099
 Red. masses --     5.1276                 4.6052                 4.3529
 Frc consts  --     2.8739                 2.6512                 2.5473
 IR Inten    --     9.6959               132.3044                33.4070
 Raman Activ --     3.6409                 1.1727                 0.7638

                    55                     56                     57
                     A                      A                      A
 Frequencies --  1005.1755              1025.3142              1031.4431
 Red. masses --     4.5408                 6.2503                 2.3861
 Frc consts  --     2.7032                 3.8714                 1.4956
 IR Inten    --    11.9829               214.4479               267.9091
 Raman Activ --     3.8024                 0.8672                 0.3425

                    58                     59                     60
                     A                      A                      A
 Frequencies --  1036.7077              1048.0903              1055.3557
 Red. masses --     3.6160                 2.8337                 3.5409
 Frc consts  --     2.2897                 1.8340                 2.3236
 IR Inten    --   163.5021               250.9040                 3.7480
 Raman Activ --     1.6105                 5.8523                10.9916

                    61                     62                     63
                     A                      A                      A
 Frequencies --  1068.3124              1078.6539              1084.6739
 Red. masses --     3.6872                 5.3685                 3.3582
 Frc consts  --     2.4794                 3.6802                 2.3278
 IR Inten    --   138.2494                35.0109                28.0741
 Raman Activ --     1.8749                 1.8302                16.2028

                    64                     65                     66
                     A                      A                      A
 Frequencies --  1098.5030              1101.2747              1105.9688
 Red. masses --     3.9394                 2.2096                 2.6442
 Frc consts  --     2.8008                 1.5789                 1.9056
 IR Inten    --    31.9111                26.0133                48.9906
 Raman Activ --     4.2628                 4.6296                 3.6748

                    67                     68                     69
                     A                      A                      A
 Frequencies --  1121.8080              1127.3236              1138.4281
 Red. masses --     2.8547                 2.7434                 2.1771
 Frc consts  --     2.1167                 2.0542                 1.6624
 IR Inten    --    44.7266                61.1852                22.0843
 Raman Activ --     4.6737                 5.2658                 2.4767

                    70                     71                     72
                     A                      A                      A
 Frequencies --  1140.6838              1149.4383              1162.8904
 Red. masses --     2.2087                 2.4810                 1.9390
 Frc consts  --     1.6932                 1.9313                 1.5449
 IR Inten    --    31.8345                65.1788                 3.4739
 Raman Activ --     1.6252                 6.4957                 2.6763

                    73                     74                     75
                     A                      A                      A
 Frequencies --  1170.5729              1176.0509              1182.2663
 Red. masses --     1.7584                 2.5253                 1.7138
 Frc consts  --     1.4196                 2.0578                 1.4114
 IR Inten    --    11.6896                 6.3307                10.5517
 Raman Activ --     1.2195                 1.8726                 3.6182

                    76                     77                     78
                     A                      A                      A
 Frequencies --  1188.2884              1220.0190              1223.9665
 Red. masses --     2.5894                 1.4354                 1.3123
 Frc consts  --     2.1543                 1.2588                 1.1583
 IR Inten    --    51.8567                 2.5518                11.0098
 Raman Activ --     1.9761                 2.3930                 0.8619

                    79                     80                     81
                     A                      A                      A
 Frequencies --  1231.4318              1247.0970              1272.4226
 Red. masses --     1.3934                 1.2652                 1.2807
 Frc consts  --     1.2449                 1.1593                 1.2217
 IR Inten    --     7.5576                11.7963                 7.0130
 Raman Activ --     6.0016                 2.9280                 0.9551

                    82                     83                     84
                     A                      A                      A
 Frequencies --  1277.9395              1283.2644              1284.3018
 Red. masses --     1.3113                 1.1775                 1.1837
 Frc consts  --     1.2618                 1.1425                 1.1504
 IR Inten    --    24.6120                 8.7100                 7.5743
 Raman Activ --     1.3853                 2.7165                 6.5472

                    85                     86                     87
                     A                      A                      A
 Frequencies --  1293.2676              1295.4881              1303.9069
 Red. masses --     1.1396                 1.3020                 1.3021
 Frc consts  --     1.1230                 1.2874                 1.3044
 IR Inten    --    31.4574                10.1932                16.5028
 Raman Activ --     4.0871                 1.4858                 3.4160

                    88                     89                     90
                     A                      A                      A
 Frequencies --  1323.2799              1329.1114              1334.2566
 Red. masses --     1.3655                 1.2144                 1.2310
 Frc consts  --     1.4088                 1.2640                 1.2912
 IR Inten    --    18.1309                12.3113                13.1812
 Raman Activ --     7.9314                 2.4655                 3.6652

                    91                     92                     93
                     A                      A                      A
 Frequencies --  1340.5383              1342.6559              1346.7581
 Red. masses --     1.4456                 1.2205                 1.3290
 Frc consts  --     1.5306                 1.2963                 1.4202
 IR Inten    --    35.9784                 9.7768                56.0785
 Raman Activ --     9.6072                 1.4359                 3.8661

                    94                     95                     96
                     A                      A                      A
 Frequencies --  1354.4515              1362.8525              1372.3901
 Red. masses --     1.2753                 1.2755                 1.3108
 Frc consts  --     1.3784                 1.3959                 1.4546
 IR Inten    --    52.1537                12.0315                 6.0137
 Raman Activ --     1.2458                 4.1537                 3.0477

                    97                     98                     99
                     A                      A                      A
 Frequencies --  1376.6109              1382.0190              1389.2612
 Red. masses --     1.5561                 1.3775                 1.3691
 Frc consts  --     1.7374                 1.5502                 1.5569
 IR Inten    --    17.7714                13.1392                25.2222
 Raman Activ --     1.3970                 2.8757                 4.0171

                   100                    101                    102
                     A                      A                      A
 Frequencies --  1401.7915              1413.8545              1448.6748
 Red. masses --     1.4296                 1.4223                 1.3998
 Frc consts  --     1.6552                 1.6751                 1.7308
 IR Inten    --    12.3013                52.6114                 0.7726
 Raman Activ --     7.4845                 3.6867                 1.2666

                   103                    104                    105
                     A                      A                      A
 Frequencies --  1453.4747              1461.0501              1464.4588
 Red. masses --     1.4662                 1.1253                 1.2561
 Frc consts  --     1.8249                 1.4153                 1.5872
 IR Inten    --    11.5543                 0.9498                 4.0623
 Raman Activ --     2.2445                 4.3879                12.5959

                   106                    107                    108
                     A                      A                      A
 Frequencies --  1472.0750              1476.6057              3265.8725
 Red. masses --     1.0834                 1.4342                 1.0816
 Frc consts  --     1.3833                 1.8424                 6.7968
 IR Inten    --     1.6399                78.5355                21.5147
 Raman Activ --     5.9737                 1.9792                61.5404

                   109                    110                    111
                     A                      A                      A
 Frequencies --  3267.2919              3276.7205              3281.8372
 Red. masses --     1.0592                 1.0846                 1.0839
 Frc consts  --     6.6621                 6.8613                 6.8784
 IR Inten    --    43.7076                 0.3899                32.3818
 Raman Activ --    84.9870                20.5224                95.3357

                   112                    113                    114
                     A                      A                      A
 Frequencies --  3284.8507              3288.1586              3290.8413
 Red. masses --     1.0835                 1.0578                 1.0830
 Frc consts  --     6.8885                 6.7387                 6.9100
 IR Inten    --     1.8740                20.0685                13.8767
 Raman Activ --    70.7331                53.5454               152.8650

                   115                    116                    117
                     A                      A                      A
 Frequencies --  3293.1838              3297.7758              3300.5619
 Red. masses --     1.0857                 1.0844                 1.0840
 Frc consts  --     6.9373                 6.9485                 6.9572
 IR Inten    --     2.6578                 6.0756                14.3837
 Raman Activ --    23.5333                16.7641                93.9601

                   118                    119                    120
                     A                      A                      A
 Frequencies --  3312.7941              3317.5468              3321.8180
 Red. masses --     1.0893                 1.0866                 1.1011
 Frc consts  --     7.0438                 7.0463                 7.1586
 IR Inten    --    29.8183                56.5992                76.1003
 Raman Activ --    29.6109                14.2341                44.8725

                   121                    122                    123
                     A                      A                      A
 Frequencies --  3353.0692              3369.6685              3385.2578
 Red. masses --     1.1070                 1.0667                 1.0682
 Frc consts  --     7.3331                 7.1362                 7.2123
 IR Inten    --    20.2994               319.3020                28.7579
 Raman Activ --    52.9598               195.4118                98.2616

                   124                    125                    126
                     A                      A                      A
 Frequencies --  3388.0664              3394.4068              3395.0887
 Red. masses --     1.0677                 1.0708                 1.0656
 Frc consts  --     7.2210                 7.2689                 7.2366
 IR Inten    --    55.5742                35.8270                38.1703
 Raman Activ --   178.9111                81.2300                65.8082

                   127                    128                    129
                     A                      A                      A
 Frequencies --  3395.5536              3913.1767              3919.0596
 Red. masses --     1.0666                 1.0679                 1.0671
 Frc consts  --     7.2454                 9.6347                 9.6566
 IR Inten    --    61.3128                63.8038                68.2161
 Raman Activ --   118.1523               100.2199               130.0045

 - Thermochemistry -
 -------------------
 Temperature   298.150 Kelvin.  Pressure   1.00000 Atm.
 Atom     1 has atomic number  8 and mass  15.99491

 Molecular mass:   342.11621 amu.
 Principal axes and moments of inertia in atomic units:
                           1         2         3
     Eigenvalues --  4669.08270********************
           X            0.99998  -0.00623  -0.00059
           Y            0.00623   0.99998   0.00034
           Z            0.00059  -0.00034   1.00000
 This molecule is an asymmetric top.
 Rotational symmetry number  1.
 Warning -- assumption of classical behavior for rotation
           may cause significant error
 Rotational temperatures (Kelvin)      0.01855     0.00718     0.00541
 Rotational constants (GHZ):           0.38653     0.14966     0.11280
    6 imaginary frequencies ignored.
 Zero-point vibrational energy     973811.0 (Joules/Mol)
                                  232.74642 (Kcal/Mol)
 Warning -- explicit consideration of  35 degrees of freedom as
           vibrations may cause significant error
 Vibrational temperatures:     39.19    66.80    70.57   101.40   130.41
          (Kelvin)            157.82   196.74   212.62   251.87   289.25
                              303.04   382.96   399.43   403.10   425.63
                              438.52   456.43   486.09   502.26   529.65
                              545.01   589.71   599.48   613.02   627.14
                              683.86   702.50   749.68   764.56   786.45
                              803.02   834.67   859.73   865.88   890.37
                              926.61   935.46   969.95   999.94  1065.72
                             1147.88  1194.51  1236.42  1367.14  1394.53
                             1403.28  1422.21  1433.90  1446.22  1475.20
                             1484.01  1491.59  1507.97  1518.42  1537.06
                             1551.94  1560.60  1580.50  1584.49  1591.24
                             1614.03  1621.97  1637.94  1641.19  1653.78
                             1673.14  1684.19  1692.07  1701.02  1709.68
                             1755.33  1761.01  1771.75  1794.29  1830.73
                             1838.67  1846.33  1847.82  1860.72  1863.92
                             1876.03  1903.90  1912.29  1919.70  1928.73
                             1931.78  1937.68  1948.75  1960.84  1974.56
                             1980.63  1988.41  1998.83  2016.86  2034.22
                             2084.32  2091.22  2102.12  2107.03  2117.98
                             2124.50  4698.86  4700.90  4714.46  4721.83
                             4726.16  4730.92  4734.78  4738.15  4744.76
                             4748.77  4766.37  4773.20  4779.35  4824.31
                             4848.20  4870.62  4874.67  4883.79  4884.77
                             4885.44  5630.18  5638.65

 Zero-point correction=                           0.370905 (Hartree/Particle)
 Thermal correction to Energy=                    0.390517
 Thermal correction to Enthalpy=                  0.391461
 Thermal correction to Gibbs Free Energy=         0.322671
 Sum of electronic and zero-point Energies=          -1297.558566
 Sum of electronic and thermal Energies=             -1297.538954
 Sum of electronic and thermal Enthalpies=           -1297.538010
 Sum of electronic and thermal Free Energies=        -1297.606800

                     E (Thermal)             CV                S
                      KCal/Mol        Cal/Mol-Kelvin    Cal/Mol-Kelvin
 Total                  245.053             78.911            144.782
 Electronic               0.000              0.000              0.000
 Translational            0.889              2.981             43.384
 Rotational               0.889              2.981             35.153
 Vibrational            243.276             72.949             66.244
 Vibration     1          0.593              1.984              6.021
 Vibration     2          0.595              1.979              4.964
 Vibration     3          0.595              1.978              4.855
 Vibration     4          0.598              1.968              4.140
 Vibration     5          0.602              1.956              3.646
 Vibration     6          0.606              1.941              3.274
 Vibration     7          0.614              1.917              2.849
 Vibration     8          0.617              1.905              2.701
 Vibration     9          0.627              1.873              2.380
 Vibration    10          0.638              1.838              2.124
 Vibration    11          0.643              1.825              2.038
 Vibration    12          0.672              1.735              1.621
 Vibration    13          0.679              1.715              1.548
 Vibration    14          0.680              1.710              1.533
 Vibration    15          0.690              1.682              1.440
 Vibration    16          0.696              1.665              1.390
 Vibration    17          0.704              1.641              1.324
 Vibration    18          0.718              1.600              1.222
 Vibration    19          0.726              1.577              1.170
 Vibration    20          0.741              1.538              1.088
 Vibration    21          0.749              1.515              1.044
 Vibration    22          0.774              1.449              0.927
 Vibration    23          0.780              1.434              0.903
 Vibration    24          0.788              1.414              0.872
 Vibration    25          0.796              1.392              0.840
 Vibration    26          0.832              1.305              0.723
 Vibration    27          0.844              1.276              0.688
 Vibration    28          0.876              1.203              0.608
 Vibration    29          0.886              1.181              0.584
 Vibration    30          0.902              1.147              0.551
 Vibration    31          0.914              1.122              0.528
 Vibration    32          0.937              1.074              0.485
 Vibration    33          0.955              1.037              0.454
 Vibration    34          0.960              1.028              0.447
 Vibration    35          0.979              0.992              0.418

 Normal termination of Gaussian 09 at Tue Mar  1 16:24:01 2016.
