 Gaussian 09, Revision B.01,
 Gaussian 09:  EM64L-G09RevB.01 12-Aug-2010

 -------------------------------------------------
 # freq=raman b3lyp/6-31+g(2d,p) geom=connectivity
 -------------------------------------------------

 -----------------
 493 5435/5435.com
 -----------------
 Symbolic Z-matrix:
 Charge =  0 Multiplicity = 1

                         Standard orientation:
 ---------------------------------------------------------------------
 Center     Atomic      Atomic             Coordinates (Angstroms)
 Number     Number       Type             X           Y           Z
 ---------------------------------------------------------------------
      1          8           0       -5.121817   -0.372968    0.364152
      2          6           0       -3.811724   -0.129715   -0.166908
      3          6           0       -3.313922    1.214667    0.340027
      4          8           0       -4.233252    2.182364   -0.186348
      5          1           0       -5.123254    1.796480    0.058981
      6          6           0       -1.924205    1.556328   -0.169912
      7          8           0       -1.322936    2.649748    0.538428
      8          1           0       -0.396328    2.745666    0.175452
      9          6           0       -3.069242   -2.455739   -0.153491
     10          8           0       -4.330350   -3.088062    0.108367
     11          1           0       -4.225821   -4.068699   -0.061373
     12          6           0       -2.711770   -1.056573    0.321887
     13          8           0       -1.402078   -0.896963   -0.243402
     14          6           0       -0.918450    0.430934    0.008909
     15          8           0        0.337347    0.636645   -0.652978
     16          6           0        1.532839    0.194286    0.006626
     17          6           0        2.040415   -1.197748   -0.330600
     18          8           0        1.025955   -2.139029    0.050265
     19          1           0        0.127580   -1.748528   -0.155319
     20          6           0        3.414587   -1.523879    0.231913
     21          8           0        3.941285   -2.736946   -0.326563
     22          1           0        4.578121   -3.126374    0.338548
     23          6           0        2.366564    2.581548    0.042005
     24          8           0        1.158854    3.242808   -0.363390
     25          1           0        1.356597    4.223529   -0.356616
     26          6           0        2.676934    1.138857   -0.322385
     27          8           0        3.915701    0.868891    0.349695
     28          6           0        4.402845   -0.411918   -0.076843
     29          8           0        5.638546   -0.514340    0.646636
     30          1           0        6.364117   -0.621270    0.027190
     31          1           0        4.602224   -0.389008   -1.127854
     32          1           0        3.337411   -1.635137    1.293311
     33          1           0        2.125412   -1.246949   -1.396084
     34          1           0        1.360513    0.235757    1.061843
     35          1           0        2.852701    1.091007   -1.376765
     36          1           0        3.176982    3.171247   -0.332664
     37          1           0        2.402012    2.640190    1.109809
     38          1           0       -5.734939   -0.532495   -0.357120
     39          1           0       -2.318550   -3.107990    0.241389
     40          1           0       -2.950769   -2.450998   -1.216902
     41          1           0       -2.657608   -1.034628    1.390290
     42          1           0       -3.842652   -0.128886   -1.236461
     43          1           0       -3.330297    1.234841    1.409711
     44          1           0       -1.986728    1.806086   -1.208475
     45          1           0       -0.684006    0.442696    1.052843
 ---------------------------------------------------------------------

 SCF Done:  E(RB3LYP) =  -1297.97685745     A.U. after   13 cycles

 The electronic state is 1-A.
 Alpha  occ. eigenvalues --  -19.19507 -19.18789 -19.18580 -19.18138 -19.17844
 Alpha  occ. eigenvalues --  -19.17681 -19.16703 -19.15991 -19.14683 -19.13575
 Alpha  occ. eigenvalues --  -19.13418 -10.30431 -10.30403 -10.25941 -10.25901
 Alpha  occ. eigenvalues --  -10.25741 -10.25446 -10.25420 -10.24834 -10.24623
 Alpha  occ. eigenvalues --  -10.24474 -10.24150 -10.23534  -1.10372  -1.09236
 Alpha  occ. eigenvalues --   -1.06058  -1.05472  -1.04659  -1.03664  -1.02762
 Alpha  occ. eigenvalues --   -1.02436  -1.02014  -1.00725  -1.00286  -0.82426
 Alpha  occ. eigenvalues --   -0.81070  -0.79340  -0.78222  -0.71720  -0.69726
 Alpha  occ. eigenvalues --   -0.67668  -0.64995  -0.63068  -0.62535  -0.61403
 Alpha  occ. eigenvalues --   -0.60462  -0.56454  -0.55845  -0.55277  -0.55195
 Alpha  occ. eigenvalues --   -0.54459  -0.53322  -0.52642  -0.52239  -0.51407
 Alpha  occ. eigenvalues --   -0.50599  -0.49915  -0.49184  -0.48871  -0.46911
 Alpha  occ. eigenvalues --   -0.45922  -0.45032  -0.44450  -0.43833  -0.43467
 Alpha  occ. eigenvalues --   -0.43025  -0.42008  -0.41639  -0.40678  -0.39989
 Alpha  occ. eigenvalues --   -0.38941  -0.38090  -0.37365  -0.36601  -0.35891
 Alpha  occ. eigenvalues --   -0.35777  -0.35217  -0.34457  -0.33746  -0.33354
 Alpha  occ. eigenvalues --   -0.32569  -0.31780  -0.30960  -0.30443  -0.30219
 Alpha  occ. eigenvalues --   -0.29877  -0.28663  -0.28448  -0.27677  -0.26362
 Alpha  occ. eigenvalues --   -0.26142
 Alpha virt. eigenvalues --   -0.01950  -0.01847  -0.01459  -0.00218   0.00072
 Alpha virt. eigenvalues --    0.01087   0.02065   0.02359   0.02514   0.03738
 Alpha virt. eigenvalues --    0.04031   0.04394   0.04705   0.05256   0.05781

 Mulliken atomic charges:
              1
     1  O   -0.551183
     2  C   -0.159158
     3  C    0.297846
     4  O   -0.567502
     5  H    0.344795
     6  C   -0.139322
     7  O   -0.574437
     8  H    0.431923
     9  C   -0.251067
    10  O   -0.549790
    11  H    0.340916
    12  C    0.349291
    13  O   -0.299706
    14  C    0.225633
    15  O   -0.247307
    16  C    0.127811
    17  C    0.160021
    18  O   -0.590108
    19  H    0.400880
    20  C    0.067304
    21  O   -0.521107
    22  H    0.339259
    23  C   -0.295753
    24  O   -0.562356
    25  H    0.362261
    26  C   -0.015726
    27  O   -0.230653
    28  C    0.122682
    29  O   -0.540295
    30  H    0.333660
    31  H    0.126552
    32  H    0.134353
    33  H    0.121192
    34  H    0.119634
    35  H    0.118743
    36  H    0.142028
    37  H    0.157106
    38  H    0.352565
    39  H    0.140216
    40  H    0.142434
    41  H    0.122314
    42  H    0.131341
    43  H    0.134108
    44  H    0.134175
    45  H    0.114427
 Sum of Mulliken atomic charges =   0.00000

 Dipole moment (field-independent basis, Debye):
    X=              2.2193    Y=             -0.5011    Z=             -1.9564  Tot=              3.0006
 Quadrupole moment (field-independent basis, Debye-Ang):
   XX=           -120.4639   YY=           -135.8468   ZZ=           -139.2140
   XY=             14.4754   XZ=              1.3085   YZ=             -2.9124

  Exact polarizability: 237.215  -1.508 194.509   0.935   0.134 142.575
 Approx polarizability: 277.873  -1.297 253.290   1.308   0.218 238.494

 ******    7 imaginary frequencies (negative Signs) ******

                     1                      2                      3
                     A                      A                      A
 Frequencies --  -302.0678              -289.2073              -240.8365
 Red. masses --     1.7219                 1.7225                 1.1602
 Frc consts  --     0.0926                 0.0849                 0.0396
 IR Inten    --     9.6918                 1.6272                88.8243
 Raman Activ --     0.0516                 0.0390                 0.7046

                     4                      5                      6
                     A                      A                      A
 Frequencies --  -232.7317               -73.7261               -34.5346
 Red. masses --     1.1867                 6.9569                 6.4764
 Frc consts  --     0.0379                 0.0223                 0.0046
 IR Inten    --   113.5224                 1.1043                 0.5934
 Raman Activ --     0.5183                 0.0079                 0.0065

                     7                      8                      9
                     A                      A                      A
 Frequencies --   -25.8963                51.0989                75.5358
 Red. masses --     6.6972                 6.9464                 6.4004
 Frc consts  --     0.0026                 0.0107                 0.0215
 IR Inten    --     0.8747                 0.2405                 3.6345
 Raman Activ --     0.0431                 0.0524                 0.0328

                    10                     11                     12
                     A                      A                      A
 Frequencies --    92.1403               100.6433               124.3235
 Red. masses --     6.4397                 5.5699                 5.7045
 Frc consts  --     0.0322                 0.0332                 0.0519
 IR Inten    --     0.4386                 5.0315                 1.9735
 Raman Activ --     0.2631                 0.1745                 0.1054

                    13                     14                     15
                     A                      A                      A
 Frequencies --   155.9517               189.4968               197.7568
 Red. masses --     6.1134                 6.3496                 7.3117
 Frc consts  --     0.0876                 0.1343                 0.1685
 IR Inten    --     3.9100                 2.7186                 0.2832
 Raman Activ --     0.4874                 1.0619                 1.0607

                    16                     17                     18
                     A                      A                      A
 Frequencies --   205.6385               231.1751               273.7047
 Red. masses --     6.8716                 6.0559                 5.8940
 Frc consts  --     0.1712                 0.1907                 0.2602
 IR Inten    --     0.2477                 1.1662                 1.1926
 Raman Activ --     1.9557                 0.4970                 0.1853

                    19                     20                     21
                     A                      A                      A
 Frequencies --   283.0186               294.7972               308.9493
 Red. masses --     4.6597                 5.4462                 5.1778
 Frc consts  --     0.2199                 0.2789                 0.2912
 IR Inten    --    13.7171                 2.2642                 3.6311
 Raman Activ --     0.6896                 0.1108                 0.4790

                    22                     23                     24
                     A                      A                      A
 Frequencies --   313.5426               319.8559               329.4072
 Red. masses --     4.9095                 6.3347                 5.9748
 Frc consts  --     0.2844                 0.3818                 0.3820
 IR Inten    --     2.6354                 5.1258                 7.0478
 Raman Activ --     0.3368                 1.4806                 4.6957

                    25                     26                     27
                     A                      A                      A
 Frequencies --   346.1871               370.5620               386.6893
 Red. masses --     6.7794                 4.4835                 6.0824
 Frc consts  --     0.4787                 0.3627                 0.5359
 IR Inten    --     2.4415                 4.1756                 0.5810
 Raman Activ --     1.6235                 0.0542                 0.9409

                    28                     29                     30
                     A                      A                      A
 Frequencies --   412.8190               416.7493               437.8864
 Red. masses --     6.4253                 5.4907                 4.5997
 Frc consts  --     0.6452                 0.5619                 0.5196
 IR Inten    --     3.2130                 9.6141                13.5216
 Raman Activ --     5.1498                 5.9286                 2.4573

                    31                     32                     33
                     A                      A                      A
 Frequencies --   441.1410               478.1339               498.7921
 Red. masses --     5.3860                 4.2276                 3.9370
 Frc consts  --     0.6175                 0.5694                 0.5771
 IR Inten    --     2.6786                 9.3335                 8.7387
 Raman Activ --     1.7943                 0.8161                 1.2921

                    34                     35                     36
                     A                      A                      A
 Frequencies --   514.8359               539.1389               564.8714
 Red. masses --     4.0595                 3.4245                 3.1273
 Frc consts  --     0.6340                 0.5865                 0.5879
 IR Inten    --     7.3640                 5.0756                12.0943
 Raman Activ --     4.0409                 5.6947                 0.8167

                    37                     38                     39
                     A                      A                      A
 Frequencies --   578.8096               603.6953               612.4276
 Red. masses --     2.9788                 6.8776                 5.4655
 Frc consts  --     0.5880                 1.4768                 1.2078
 IR Inten    --    45.6118                 6.9400                 0.6343
 Raman Activ --     0.6046                 0.6618                 0.2553

                    40                     41                     42
                     A                      A                      A
 Frequencies --   629.5148               671.4387               705.8293
 Red. masses --     4.3090                 5.8619                 1.0700
 Frc consts  --     1.0061                 1.5570                 0.3141
 IR Inten    --    42.8676                14.1685                66.9301
 Raman Activ --     1.8845                 0.6356                 0.9874

                    43                     44                     45
                     A                      A                      A
 Frequencies --   707.4170               726.9115               787.6727
 Red. masses --     1.0889                 1.0828                 1.0642
 Frc consts  --     0.3211                 0.3371                 0.3890
 IR Inten    --   117.1676               115.7609                79.7781
 Raman Activ --     2.4584                 1.6130                 1.0755

                    46                     47                     48
                     A                      A                      A
 Frequencies --   809.8329               854.5431               856.4774
 Red. masses --     1.0752                 1.5944                 1.6967
 Frc consts  --     0.4155                 0.6860                 0.7333
 IR Inten    --    88.2045                 9.4867                 4.7762
 Raman Activ --     1.4180                 1.3240                 0.3573

                    49                     50                     51
                     A                      A                      A
 Frequencies --   900.4142               938.8090               961.3299
 Red. masses --     1.1624                 5.6804                 6.7020
 Frc consts  --     0.5553                 2.9497                 3.6492
 IR Inten    --    67.2690                82.9681               146.1619
 Raman Activ --     0.5248                 3.2155                 1.4678

                    52                     53                     54
                     A                      A                      A
 Frequencies --   977.3616               980.9392               984.7679
 Red. masses --     4.9754                 5.2005                 8.0624
 Frc consts  --     2.8002                 2.9484                 4.6066
 IR Inten    --    48.4664               180.0842               396.4844
 Raman Activ --     2.7287                 0.7878                 0.6450

                    55                     56                     57
                     A                      A                      A
 Frequencies --   988.3057              1018.7393              1026.5638
 Red. masses --     7.1094                 6.5725                 5.8440
 Frc consts  --     4.0913                 4.0189                 3.6285
 IR Inten    --    57.2751               152.8089               138.4041
 Raman Activ --     1.9633                 2.1382                 2.3439

                    58                     59                     60
                     A                      A                      A
 Frequencies --  1030.1573              1048.9622              1060.8599
 Red. masses --     6.9371                 6.4291                 6.3989
 Frc consts  --     4.3375                 4.1679                 4.2430
 IR Inten    --   179.7690                94.9223                14.0581
 Raman Activ --     3.0068                 3.7494                 1.0349

                    61                     62                     63
                     A                      A                      A
 Frequencies --  1064.7128              1070.2288              1077.2454
 Red. masses --     3.6929                 3.7519                 3.1880
 Frc consts  --     2.4665                 2.5320                 2.1797
 IR Inten    --    22.3204                62.0681                13.8558
 Raman Activ --     5.4775                 3.5929                21.9343

                    64                     65                     66
                     A                      A                      A
 Frequencies --  1096.2008              1102.7942              1110.9473
 Red. masses --     2.5879                 3.1875                 2.8908
 Frc consts  --     1.8322                 2.2839                 2.1021
 IR Inten    --    41.5493                38.6938                39.0642
 Raman Activ --     8.7121                 9.5254                 1.9566

                    67                     68                     69
                     A                      A                      A
 Frequencies --  1116.1819              1122.8418              1127.2302
 Red. masses --     2.3681                 2.6249                 3.1824
 Frc consts  --     1.7383                 1.9498                 2.3825
 IR Inten    --    41.6884                12.1977                23.3354
 Raman Activ --     7.0830                 4.7465                 4.7554

                    70                     71                     72
                     A                      A                      A
 Frequencies --  1138.2056              1156.1204              1165.1111
 Red. masses --     2.0991                 2.9419                 1.7480
 Frc consts  --     1.6022                 2.3168                 1.3980
 IR Inten    --    31.7724                26.0145                 6.6327
 Raman Activ --     4.3226                 4.9905                 2.7206

                    73                     74                     75
                     A                      A                      A
 Frequencies --  1170.5160              1177.6776              1188.3770
 Red. masses --     1.5672                 1.8513                 2.0298
 Frc consts  --     1.2651                 1.5128                 1.6889
 IR Inten    --     5.6841                 6.4075                17.9725
 Raman Activ --     1.3321                 1.3528                 1.7604

                    76                     77                     78
                     A                      A                      A
 Frequencies --  1212.4653              1213.1102              1228.4219
 Red. masses --     1.3270                 1.3608                 1.2452
 Frc consts  --     1.1493                 1.1799                 1.1071
 IR Inten    --    13.2183                 6.9861                 9.6560
 Raman Activ --     1.2999                 1.9518                 1.3242

                    79                     80                     81
                     A                      A                      A
 Frequencies --  1247.1050              1252.5735              1263.3721
 Red. masses --     1.2144                 1.2648                 1.3656
 Frc consts  --     1.1128                 1.1692                 1.2842
 IR Inten    --    12.0352                 5.9946                 8.6802
 Raman Activ --     1.8666                 0.5699                 1.0094

                    82                     83                     84
                     A                      A                      A
 Frequencies --  1270.2091              1285.6305              1299.2081
 Red. masses --     1.3897                 1.3928                 1.4297
 Frc consts  --     1.3210                 1.3563                 1.4219
 IR Inten    --     8.8504                31.4466                40.2339
 Raman Activ --     0.9321                 1.4770                 4.7654

                    85                     86                     87
                     A                      A                      A
 Frequencies --  1306.0232              1308.3671              1320.1092
 Red. masses --     1.2732                 1.3717                 1.1680
 Frc consts  --     1.2795                 1.3835                 1.1993
 IR Inten    --    14.1513                18.4319                 1.2203
 Raman Activ --     1.6448                 2.1208                 8.6766

                    88                     89                     90
                     A                      A                      A
 Frequencies --  1323.4091              1328.0974              1335.5932
 Red. masses --     1.3319                 1.2943                 1.2294
 Frc consts  --     1.3744                 1.3451                 1.2921
 IR Inten    --    16.4414                52.6110                 6.4363
 Raman Activ --     9.1876                 4.4314                12.1781

                    91                     92                     93
                     A                      A                      A
 Frequencies --  1343.6433              1347.6874              1360.0303
 Red. masses --     1.1096                 1.2021                 1.2319
 Frc consts  --     1.1803                 1.2864                 1.3426
 IR Inten    --    21.3702                27.7379                18.4108
 Raman Activ --     5.4962                 0.8674                 5.1107

                    94                     95                     96
                     A                      A                      A
 Frequencies --  1360.6761              1367.7460              1388.1595
 Red. masses --     1.2670                 1.2931                 1.3867
 Frc consts  --     1.3821                 1.4253                 1.5744
 IR Inten    --    17.2977                 8.2163                13.3016
 Raman Activ --     1.1743                 3.8024                 2.9218

                    97                     98                     99
                     A                      A                      A
 Frequencies --  1391.7574              1406.7847              1426.7995
 Red. masses --     1.5050                 1.5163                 1.2915
 Frc consts  --     1.7176                 1.7681                 1.5490
 IR Inten    --     7.1256                 4.8134                 2.2027
 Raman Activ --     5.3727                 2.8754                 8.4327

                   100                    101                    102
                     A                      A                      A
 Frequencies --  1447.1335              1469.9111              1471.8795
 Red. masses --     1.2889                 1.2133                 1.0903
 Frc consts  --     1.5904                 1.5445                 1.3917
 IR Inten    --    39.7799                51.2804                 7.1076
 Raman Activ --     2.2003                 1.4705                 6.9240

                   103                    104                    105
                     A                      A                      A
 Frequencies --  1473.2734              1480.3466              1483.2241
 Red. masses --     1.2182                 1.2558                 1.3695
 Frc consts  --     1.5579                 1.6214                 1.7751
 IR Inten    --    27.8462                 7.0175                14.9989
 Raman Activ --     2.9857                 0.6697                 0.2309

                   106                    107                    108
                     A                      A                      A
 Frequencies --  1508.1894              1512.2633              3246.3052
 Red. masses --     1.2411                 1.2838                 1.0680
 Frc consts  --     1.6634                 1.7299                 6.6311
 IR Inten    --    18.3317                84.9900               457.4984
 Raman Activ --     4.2262                 0.3138               147.6100

                   109                    110                    111
                     A                      A                      A
 Frequencies --  3252.2231              3259.2141              3262.6335
 Red. masses --     1.0580                 1.0755                 1.0661
 Frc consts  --     6.5934                 6.7312                 6.6861
 IR Inten    --    49.7619               234.9230                30.6232
 Raman Activ --    72.7088                46.6538               222.3065

                   112                    113                    114
                     A                      A                      A
 Frequencies --  3264.1546              3267.6858              3274.7457
 Red. masses --     1.0791                 1.0813                 1.0758
 Frc consts  --     6.7740                 6.8025                 6.7973
 IR Inten    --   216.9761                31.3498               558.5057
 Raman Activ --     8.7787               124.5348                72.3706

                   115                    116                    117
                     A                      A                      A
 Frequencies --  3281.5305              3281.9612              3285.5330
 Red. masses --     1.0839                 1.0847                 1.0840
 Frc consts  --     6.8772                 6.8836                 6.8941
 IR Inten    --    60.2745                 6.6378                48.9559
 Raman Activ --    22.0802               134.0843                54.4118

                   118                    119                    120
                     A                      A                      A
 Frequencies --  3287.2651              3290.6975              3300.0973
 Red. masses --     1.0834                 1.0860                 1.0961
 Frc consts  --     6.8978                 6.9289                 7.0331
 IR Inten    --   113.2562                10.7762                15.5306
 Raman Activ --   151.3149                 9.1316                26.0443

                   121                    122                    123
                     A                      A                      A
 Frequencies --  3300.8527              3309.6626              3312.4947
 Red. masses --     1.0873                 1.0929                 1.1042
 Frc consts  --     6.9797                 7.0531                 7.1385
 IR Inten    --    50.2678                84.1552                67.8215
 Raman Activ --     7.4894                14.3714                39.3011

                   124                    125                    126
                     A                      A                      A
 Frequencies --  3347.2864              3358.0812              3366.8537
 Red. masses --     1.0643                 1.0675                 1.0674
 Frc consts  --     7.0260                 7.0928                 7.1287
 IR Inten    --    39.5155                46.2576                60.6460
 Raman Activ --    86.1101               161.9624               149.8406

                   127                    128                    129
                     A                      A                      A
 Frequencies --  3379.8924              3892.6771              3892.8556
 Red. masses --     1.0668                 1.0676                 1.0675
 Frc consts  --     7.1805                 9.5313                 9.5313
 IR Inten    --    51.9914               129.5367                42.2989
 Raman Activ --   135.5405                44.5242               155.6379

 - Thermochemistry -
 -------------------
 Temperature   298.150 Kelvin.  Pressure   1.00000 Atm.
 Atom     1 has atomic number  8 and mass  15.99491

 Molecular mass:   342.11621 amu.
 Principal axes and moments of inertia in atomic units:
                           1         2         3
     Eigenvalues --  4199.45408********************
           X            0.99998   0.00692  -0.00013
           Y           -0.00692   0.99998   0.00036
           Z            0.00014  -0.00035   1.00000
 This molecule is an asymmetric top.
 Rotational symmetry number  1.
 Warning -- assumption of classical behavior for rotation
           may cause significant error
 Rotational temperatures (Kelvin)      0.02063     0.00677     0.00521
 Rotational constants (GHZ):           0.42976     0.14099     0.10863
    7 imaginary frequencies ignored.
 Zero-point vibrational energy     977641.6 (Joules/Mol)
                                  233.66195 (Kcal/Mol)
 Warning -- explicit consideration of  32 degrees of freedom as
           vibrations may cause significant error
 Vibrational temperatures:     73.52   108.68   132.57   144.80   178.87
          (Kelvin)            224.38   272.64   284.53   295.87   332.61
                              393.80   407.20   424.15   444.51   451.12
                              460.20   473.94   498.09   533.16   556.36
                              593.95   599.61   630.02   634.70   687.93
                              717.65   740.73   775.70   812.72   832.78
                              868.58   881.15   905.73   966.05  1015.53
                             1017.81  1045.86  1133.28  1165.17  1229.50
                             1232.28  1295.49  1350.74  1383.14  1406.20
                             1411.35  1416.86  1421.95  1465.74  1476.99
                             1482.16  1509.22  1526.34  1531.88  1539.82
                             1549.91  1577.19  1586.67  1598.40  1605.93
                             1615.52  1621.83  1637.62  1663.40  1676.33
                             1684.11  1694.41  1709.81  1744.46  1745.39
                             1767.42  1794.30  1802.17  1817.71  1827.55
                             1849.73  1869.27  1879.07  1882.45  1899.34
                             1904.09  1910.83  1921.62  1933.20  1939.02
                             1956.78  1957.71  1967.88  1997.25  2002.43
                             2024.05  2052.84  2082.10  2114.87  2117.70
                             2119.71  2129.89  2134.03  2169.95  2175.81
                             4670.70  4679.22  4689.28  4694.20  4696.38
                             4701.47  4711.62  4721.38  4722.00  4727.14
                             4729.64  4734.57  4748.10  4749.18  4761.86
                             4765.94  4815.99  4831.52  4844.15  4862.91
                             5600.69  5600.94

 Zero-point correction=                           0.372364 (Hartree/Particle)
 Thermal correction to Energy=                    0.390423
 Thermal correction to Enthalpy=                  0.391367
 Thermal correction to Gibbs Free Energy=         0.327478
 Sum of electronic and zero-point Energies=          -1297.604493
 Sum of electronic and thermal Energies=             -1297.586434
 Sum of electronic and thermal Enthalpies=           -1297.585490
 Sum of electronic and thermal Free Energies=        -1297.649379

                     E (Thermal)             CV                S
                      KCal/Mol        Cal/Mol-Kelvin    Cal/Mol-Kelvin
 Total                  244.994             75.351            134.466
 Electronic               0.000              0.000              0.000
 Translational            0.889              2.981             43.384
 Rotational               0.889              2.981             35.145
 Vibrational            243.217             69.390             55.937
 Vibration     1          0.595              1.977              4.774
 Vibration     2          0.599              1.965              4.004
 Vibration     3          0.602              1.955              3.614
 Vibration     4          0.604              1.949              3.442
 Vibration     5          0.610              1.929              3.032
 Vibration     6          0.620              1.896              2.598
 Vibration     7          0.633              1.854              2.233
 Vibration     8          0.637              1.843              2.154
 Vibration     9          0.640              1.832              2.082
 Vibration    10          0.653              1.793              1.870
 Vibration    11          0.676              1.722              1.573
 Vibration    12          0.682              1.705              1.515
 Vibration    13          0.689              1.683              1.446
 Vibration    14          0.698              1.657              1.368
 Vibration    15          0.701              1.648              1.344
 Vibration    16          0.706              1.636              1.311
 Vibration    17          0.712              1.617              1.263
 Vibration    18          0.724              1.583              1.183
 Vibration    19          0.743              1.533              1.077
 Vibration    20          0.755              1.499              1.013
 Vibration    21          0.777              1.442              0.917
 Vibration    22          0.780              1.434              0.903
 Vibration    23          0.798              1.388              0.833
 Vibration    24          0.801              1.380              0.823
 Vibration    25          0.835              1.299              0.715
 Vibration    26          0.854              1.253              0.661
 Vibration    27          0.870              1.217              0.622
 Vibration    28          0.894              1.164              0.567
 Vibration    29          0.921              1.107              0.514
 Vibration    30          0.935              1.077              0.488
 Vibration    31          0.962              1.024              0.443
 Vibration    32          0.972              1.006              0.429

 Normal termination of Gaussian 09 at Thu Mar 31 00:55:38 2016.
