 Gaussian 09, Revision B.01,
 Gaussian 09:  EM64L-G09RevB.01 12-Aug-2010

 ------------------------------------------------
 # freq=raman b3lyp/6-31+g(d,p) geom=connectivity
 ------------------------------------------------

 ------------
 350 9000.com
 ------------
 Symbolic Z-matrix:
 Charge =  0 Multiplicity = 1

                         Standard orientation:
 ---------------------------------------------------------------------
 Center     Atomic      Atomic             Coordinates (Angstroms)
 Number     Number       Type             X           Y           Z
 ---------------------------------------------------------------------
      1          8           0       -5.055099   -0.559100    0.518587
      2          6           0       -3.818522   -0.160608   -0.090744
      3          6           0       -3.238860    1.187029    0.306314
      4          8           0       -4.144008    2.226784   -0.091347
      5          1           0       -5.035903    1.956074    0.270668
      6          6           0       -1.898337    1.618159   -0.267295
      7          8           0       -1.465878    2.843611    0.340247
      8          1           0       -0.502020    2.971580    0.105540
      9          6           0       -2.881302   -2.535685   -0.116730
     10          8           0       -4.181478   -3.143029   -0.076390
     11          1           0       -4.089623   -4.134395   -0.165521
     12          6           0       -2.686057   -1.090401    0.310230
     13          8           0       -1.414275   -0.743917   -0.256771
     14          6           0       -0.871927    0.545995    0.062315
     15          8           0        0.330208    0.650404   -0.714989
     16          6           0        1.527004    0.201758   -0.061594
     17          6           0        2.015661   -1.205212   -0.364289
     18          8           0        1.020912   -2.113789    0.130981
     19          1           0        0.202752   -1.841699   -0.375192
     20          6           0        3.349985   -1.552330    0.274993
     21          8           0        3.758098   -2.727599   -0.440895
     22          1           0        4.548835   -3.128988    0.020505
     23          6           0        2.416199    2.650364    0.138872
     24          8           0        1.280361    3.299348   -0.451229
     25          1           0        1.549630    4.262094   -0.447424
     26          6           0        2.653347    1.202766   -0.257959
     27          8           0        3.822976    0.781715    0.458598
     28          6           0        4.303783   -0.437740   -0.125165
     29          8           0        5.411909   -0.664766    0.757235
     30          1           0        6.170135   -0.961852    0.248871
     31          1           0        4.554686   -0.386763   -1.164083
     32          1           0        3.286686   -1.700471    1.332796
     33          1           0        2.097700   -1.323560   -1.424555
     34          1           0        1.304558    0.210872    0.984989
     35          1           0        2.898191    1.198026   -1.299558
     36          1           0        3.289288    3.211427   -0.121559
     37          1           0        2.301844    2.686802    1.202119
     38          1           0       -5.651215   -0.892862   -0.155838
     39          1           0       -2.237665   -3.132650    0.495041
     40          1           0       -2.529795   -2.614824   -1.124242
     41          1           0       -2.596216   -1.064850    1.376145
     42          1           0       -3.932093   -0.189471   -1.154308
     43          1           0       -3.160016    1.206473    1.373228
     44          1           0       -1.974322    1.740324   -1.327579
     45          1           0       -0.631099    0.586841    1.104060
 ---------------------------------------------------------------------

 SCF Done:  E(RB3LYP) =  -1297.93710977     A.U. after   14 cycles

 The electronic state is 1-A.
 Alpha  occ. eigenvalues --  -19.19390 -19.18980 -19.18702 -19.18683 -19.18206
 Alpha  occ. eigenvalues --  -19.17596 -19.17459 -19.16895 -19.15239 -19.14878
 Alpha  occ. eigenvalues --  -19.14586 -10.30888 -10.30601 -10.25894 -10.25490
 Alpha  occ. eigenvalues --  -10.25405 -10.25383 -10.25263 -10.25205 -10.24668
 Alpha  occ. eigenvalues --  -10.24389 -10.24357 -10.23903  -1.09854  -1.09278
 Alpha  occ. eigenvalues --   -1.05363  -1.04878  -1.03916  -1.03666  -1.02692
 Alpha  occ. eigenvalues --   -1.02398  -1.02055  -1.01007  -1.00129  -0.81713
 Alpha  occ. eigenvalues --   -0.80084  -0.79193  -0.78124  -0.71659  -0.69959
 Alpha  occ. eigenvalues --   -0.67308  -0.64885  -0.62951  -0.61992  -0.61689
 Alpha  occ. eigenvalues --   -0.60104  -0.56497  -0.55507  -0.54754  -0.54450
 Alpha  occ. eigenvalues --   -0.53833  -0.53107  -0.52691  -0.52509  -0.51407
 Alpha  occ. eigenvalues --   -0.50476  -0.49561  -0.48838  -0.48001  -0.46585
 Alpha  occ. eigenvalues --   -0.45561  -0.45100  -0.44092  -0.43390  -0.42928
 Alpha  occ. eigenvalues --   -0.42331  -0.41682  -0.41142  -0.39862  -0.39048
 Alpha  occ. eigenvalues --   -0.38535  -0.38389  -0.37914  -0.36024  -0.35997
 Alpha  occ. eigenvalues --   -0.35763  -0.35172  -0.34381  -0.33999  -0.33615
 Alpha  occ. eigenvalues --   -0.32113  -0.31797  -0.30764  -0.30445  -0.30036
 Alpha  occ. eigenvalues --   -0.29215  -0.28450  -0.28202  -0.27614  -0.26335
 Alpha  occ. eigenvalues --   -0.25831
 Alpha virt. eigenvalues --   -0.01961  -0.01944  -0.01605   0.00021   0.00298
 Alpha virt. eigenvalues --    0.01122   0.02130   0.02544   0.02869   0.03452
 Alpha virt. eigenvalues --    0.03763   0.04290   0.04959   0.05369   0.05844

 Mulliken atomic charges:
              1
     1  O   -0.510223
     2  C   -0.145724
     3  C    0.132913
     4  O   -0.494496
     5  H    0.348339
     6  C   -0.091885
     7  O   -0.530748
     8  H    0.420766
     9  C   -0.139667
    10  O   -0.592292
    11  H    0.365015
    12  C    0.272257
    13  O   -0.436218
    14  C    0.183254
    15  O   -0.285859
    16  C    0.174099
    17  C   -0.237205
    18  O   -0.463819
    19  H    0.389109
    20  C    0.073176
    21  O   -0.519083
    22  H    0.348103
    23  C    0.022281
    24  O   -0.586937
    25  H    0.384557
    26  C   -0.118222
    27  O   -0.304469
    28  C    0.217402
    29  O   -0.571733
    30  H    0.357942
    31  H    0.149890
    32  H    0.168226
    33  H    0.150519
    34  H    0.119291
    35  H    0.126828
    36  H    0.136089
    37  H    0.148337
    38  H    0.377379
    39  H    0.139657
    40  H    0.142705
    41  H    0.134545
    42  H    0.137818
    43  H    0.137469
    44  H    0.149584
    45  H    0.121029
 Sum of Mulliken atomic charges =   0.00000

 Dipole moment (field-independent basis, Debye):
    X=              3.5808    Y=             -1.2750    Z=             -1.7766  Tot=              4.1957
 Quadrupole moment (field-independent basis, Debye-Ang):
   XX=           -118.8952   YY=           -132.6085   ZZ=           -140.5180
   XY=             14.3951   XZ=             -2.4857   YZ=             -0.2360

  Exact polarizability: 226.721  -0.964 192.669   0.718   0.357 140.878
 Approx polarizability: 263.812   0.130 246.549   1.384  -0.366 232.168

 ******    7 imaginary frequencies (negative Signs) ******

                     1                      2                      3
                     A                      A                      A
 Frequencies --  -348.4971              -346.9519              -300.0110
 Red. masses --     1.1395                 1.1035                 1.7295
 Frc consts  --     0.0815                 0.0783                 0.0917
 IR Inten    --    95.0340               162.3960                 5.0500
 Raman Activ --     1.2116                 1.3862                 0.0827

                     4                      5                      6
                     A                      A                      A
 Frequencies --  -250.5091               -77.4315               -69.3310
 Red. masses --     1.7941                 6.5356                 6.1440
 Frc consts  --     0.0663                 0.0231                 0.0174
 IR Inten    --     1.4173                 0.4685                 0.8340
 Raman Activ --     0.0586                 0.0223                 0.0314

                     7                      8                      9
                     A                      A                      A
 Frequencies --   -13.3974                53.7150                61.5836
 Red. masses --     6.8738                 6.8644                 6.2295
 Frc consts  --     0.0007                 0.0117                 0.0139
 IR Inten    --     0.3276                 0.7879                 0.6839
 Raman Activ --     0.0564                 0.1012                 0.0613

                    10                     11                     12
                     A                      A                      A
 Frequencies --    73.5878                78.5182               107.1247
 Red. masses --     6.5510                 6.2306                 5.3827
 Frc consts  --     0.0209                 0.0226                 0.0364
 IR Inten    --     1.5563                 0.3068                 0.4277
 Raman Activ --     0.0456                 0.1113                 0.1209

                    13                     14                     15
                     A                      A                      A
 Frequencies --   139.2910               187.4932               188.0360
 Red. masses --     6.0624                 5.9985                 6.2300
 Frc consts  --     0.0693                 0.1242                 0.1298
 IR Inten    --     1.6843                 3.6136                 0.1392
 Raman Activ --     0.3966                 0.5642                 0.8886

                    16                     17                     18
                     A                      A                      A
 Frequencies --   195.7407               220.0619               260.8577
 Red. masses --     6.7321                 6.3340                 6.1719
 Frc consts  --     0.1520                 0.1807                 0.2474
 IR Inten    --     0.2305                 2.0701                 8.7976
 Raman Activ --     0.6496                 1.4982                 0.2693

                    19                     20                     21
                     A                      A                      A
 Frequencies --   263.7378               279.1047               297.0168
 Red. masses --     4.5600                 5.5341                 5.7278
 Frc consts  --     0.1869                 0.2540                 0.2977
 IR Inten    --    10.3893                 5.9986                 4.1496
 Raman Activ --     0.3083                 0.2006                 0.2673

                    22                     23                     24
                     A                      A                      A
 Frequencies --   309.0740               318.1825               330.5616
 Red. masses --     5.6051                 6.5970                 6.2208
 Frc consts  --     0.3155                 0.3935                 0.4005
 IR Inten    --     2.6716                 0.4337                 6.8122
 Raman Activ --     0.4221                 0.8227                 4.0611

                    25                     26                     27
                     A                      A                      A
 Frequencies --   341.6414               363.7034               387.6074
 Red. masses --     6.5050                 4.1685                 6.1314
 Frc consts  --     0.4473                 0.3249                 0.5427
 IR Inten    --     1.8277                 6.3669                 1.4858
 Raman Activ --     3.1883                 0.2480                 2.5090

                    28                     29                     30
                     A                      A                      A
 Frequencies --   401.7409               419.4415               441.3203
 Red. masses --     5.8251                 4.1575                 6.1091
 Frc consts  --     0.5539                 0.4309                 0.7010
 IR Inten    --     9.8801                 9.9759                 2.5415
 Raman Activ --     2.5596                 4.2405                 2.7475

                    31                     32                     33
                     A                      A                      A
 Frequencies --   447.2417               486.9332               498.1142
 Red. masses --     4.4137                 4.8177                 4.9071
 Frc consts  --     0.5202                 0.6730                 0.7174
 IR Inten    --     5.3892                12.8764                 4.0538
 Raman Activ --     2.7306                 1.1825                 5.1663

                    34                     35                     36
                     A                      A                      A
 Frequencies --   526.9376               541.2467               577.7285
 Red. masses --     3.4321                 3.1184                 3.9629
 Frc consts  --     0.5615                 0.5382                 0.7793
 IR Inten    --    16.1273                 8.1126                27.5379
 Raman Activ --     1.7356                 2.2265                 1.4776

                    37                     38                     39
                     A                      A                      A
 Frequencies --   596.9566               609.4695               634.2891
 Red. masses --     2.8006                 6.4250                 4.5364
 Frc consts  --     0.5880                 1.4061                 1.0753
 IR Inten    --    39.5329                 4.8760                 5.9018
 Raman Activ --     0.2496                 0.5392                 0.1396

                    40                     41                     42
                     A                      A                      A
 Frequencies --   643.8125               667.9894               691.6233
 Red. masses --     4.4374                 1.0671                 5.7298
 Frc consts  --     1.0837                 0.2805                 1.6148
 IR Inten    --    35.6135               121.5148                14.5986
 Raman Activ --     1.0552                 2.2979                 1.0969

                    43                     44                     45
                     A                      A                      A
 Frequencies --   726.6782               736.8874               753.3764
 Red. masses --     1.0866                 1.1016                 1.0812
 Frc consts  --     0.3381                 0.3524                 0.3616
 IR Inten    --    87.2470               112.4958               110.1592
 Raman Activ --     1.8069                 1.5312                 2.1062

                    46                     47                     48
                     A                      A                      A
 Frequencies --   789.5473               835.9257               859.8006
 Red. masses --     1.1095                 1.1094                 1.7629
 Frc consts  --     0.4075                 0.4568                 0.7678
 IR Inten    --   164.6832                59.3770                 2.0025
 Raman Activ --     4.8613                 0.4566                 2.9504

                    49                     50                     51
                     A                      A                      A
 Frequencies --   866.6680               941.3142               966.1342
 Red. masses --     1.5897                 5.5781                 4.3473
 Frc consts  --     0.7035                 2.9121                 2.3908
 IR Inten    --    14.6820               133.8208                38.4233
 Raman Activ --     0.8987                 3.5996                 1.0425

                    52                     53                     54
                     A                      A                      A
 Frequencies --   988.0267               994.9318              1004.8498
 Red. masses --     4.4070                 6.3535                 4.6645
 Frc consts  --     2.5347                 3.7055                 2.7749
 IR Inten    --    87.4977                85.9771               209.6215
 Raman Activ --     0.7089                 2.1599                 4.8554

                    55                     56                     57
                     A                      A                      A
 Frequencies --  1012.2354              1024.6459              1032.5050
 Red. masses --     6.5011                 4.9704                 4.9015
 Frc consts  --     3.9246                 3.0746                 3.0786
 IR Inten    --   233.1229                 6.9385                66.1422
 Raman Activ --     1.0416                 2.0462                 1.8614

                    58                     59                     60
                     A                      A                      A
 Frequencies --  1055.7695              1066.0279              1070.6381
 Red. masses --     3.1843                 2.5704                 3.4396
 Frc consts  --     2.0912                 1.7210                 2.3229
 IR Inten    --   198.9010               142.0347                85.3789
 Raman Activ --     3.1370                13.0429                 5.0089

                    61                     62                     63
                     A                      A                      A
 Frequencies --  1074.8110              1076.8431              1081.0369
 Red. masses --     2.6115                 2.9010                 5.3485
 Frc consts  --     1.7775                 1.9820                 3.6827
 IR Inten    --    47.2609                43.2312                88.7595
 Raman Activ --     8.0323                 1.6855                 1.6009

                    64                     65                     66
                     A                      A                      A
 Frequencies --  1093.7234              1098.0680              1103.1126
 Red. masses --     4.8242                 3.0466                 3.4947
 Frc consts  --     3.4001                 2.1643                 2.5055
 IR Inten    --   191.5328                10.0255                82.4850
 Raman Activ --     1.7517                 7.8042                 5.2310

                    67                     68                     69
                     A                      A                      A
 Frequencies --  1115.4317              1119.7722              1126.6513
 Red. masses --     2.8483                 2.6937                 2.2301
 Frc consts  --     2.0879                 1.9901                 1.6678
 IR Inten    --    12.9185                 1.2256                31.7484
 Raman Activ --     3.3267                12.2222                 9.0432

                    70                     71                     72
                     A                      A                      A
 Frequencies --  1142.5652              1155.7660              1158.8157
 Red. masses --     2.0025                 2.7563                 1.8701
 Frc consts  --     1.5402                 2.1693                 1.4796
 IR Inten    --     6.2516                16.9820                 7.9990
 Raman Activ --     3.7962                 8.5460                 2.8007

                    73                     74                     75
                     A                      A                      A
 Frequencies --  1170.3727              1183.8120              1190.6575
 Red. masses --     2.3267                 1.4623                 1.6546
 Frc consts  --     1.8778                 1.2074                 1.3820
 IR Inten    --     9.4026                48.0860                27.5054
 Raman Activ --     2.8494                 4.9528                 1.4006

                    76                     77                     78
                     A                      A                      A
 Frequencies --  1197.3015              1205.7355              1212.2530
 Red. masses --     1.5983                 1.4386                 1.3577
 Frc consts  --     1.3499                 1.2322                 1.1755
 IR Inten    --     7.8226                20.6167                 0.4535
 Raman Activ --     1.7752                 1.6032                 0.6767

                    79                     80                     81
                     A                      A                      A
 Frequencies --  1226.4642              1232.1283              1255.2421
 Red. masses --     1.3291                 1.3600                 1.2147
 Frc consts  --     1.1780                 1.2165                 1.1276
 IR Inten    --    11.0624                11.1765                 5.5913
 Raman Activ --     0.3717                 2.3654                 1.2973

                    82                     83                     84
                     A                      A                      A
 Frequencies --  1266.8387              1271.2574              1289.6478
 Red. masses --     1.2412                 1.4593                 1.3505
 Frc consts  --     1.1736                 1.3895                 1.3233
 IR Inten    --    10.8372                17.0792                 8.6397
 Raman Activ --     2.4842                 1.7696                 3.1965

                    85                     86                     87
                     A                      A                      A
 Frequencies --  1296.7846              1307.1525              1311.0507
 Red. masses --     1.2994                 1.3432                 1.2484
 Frc consts  --     1.2874                 1.3522                 1.2643
 IR Inten    --    16.5099                 3.8169                71.6547
 Raman Activ --     2.2664                 3.1157                 4.0278

                    88                     89                     90
                     A                      A                      A
 Frequencies --  1313.5147              1315.7543              1324.2085
 Red. masses --     1.2890                 1.1821                 1.2591
 Frc consts  --     1.3104                 1.2057                 1.3009
 IR Inten    --     7.1105                29.4916                10.7338
 Raman Activ --     3.7142                12.5294                11.2122

                    91                     92                     93
                     A                      A                      A
 Frequencies --  1330.6487              1337.9691              1341.0292
 Red. masses --     1.3186                 1.1887                 1.6994
 Frc consts  --     1.3756                 1.2538                 1.8006
 IR Inten    --    15.8687                18.4118                 6.4585
 Raman Activ --     3.7455                 1.2105                 6.4293

                    94                     95                     96
                     A                      A                      A
 Frequencies --  1347.8396              1365.2048              1381.0507
 Red. masses --     1.3217                 1.2345                 1.5113
 Frc consts  --     1.4147                 1.3556                 1.6983
 IR Inten    --    21.3924                51.0432                 6.3130
 Raman Activ --     1.1857                 1.2299                 8.2764

                    97                     98                     99
                     A                      A                      A
 Frequencies --  1385.5359              1404.0217              1409.8256
 Red. masses --     1.6318                 1.4857                 1.3914
 Frc consts  --     1.8457                 1.7255                 1.6294
 IR Inten    --     6.7975                 9.5310                30.0459
 Raman Activ --     8.7094                 3.2439                 1.7637

                   100                    101                    102
                     A                      A                      A
 Frequencies --  1421.9409              1448.0494              1460.5861
 Red. masses --     1.2996                 1.3672                 1.4263
 Frc consts  --     1.5482                 1.6890                 1.7927
 IR Inten    --     0.6691                52.7392                 3.2408
 Raman Activ --    10.3351                 0.9149                 2.3886

                   103                    104                    105
                     A                      A                      A
 Frequencies --  1472.0264              1480.2425              1484.8252
 Red. masses --     1.3844                 1.1083                 1.0885
 Frc consts  --     1.7674                 1.4308                 1.4139
 IR Inten    --    23.1333                 0.5298                 2.4147
 Raman Activ --     1.4123                 4.8509                 4.7412

                   106                    107                    108
                     A                      A                      A
 Frequencies --  1498.3561              1517.0152              3266.6437
 Red. masses --     1.3053                 1.2754                 1.0581
 Frc consts  --     1.7266                 1.7293                 6.6522
 IR Inten    --    37.9276                49.3845                41.6279
 Raman Activ --     0.5853                 1.8337                73.0992

                   109                    110                    111
                     A                      A                      A
 Frequencies --  3271.0384              3273.2565              3283.6354
 Red. masses --     1.0619                 1.0777                 1.0842
 Frc consts  --     6.6944                 6.8031                 6.8876
 IR Inten    --    51.3005                18.0715                 6.2285
 Raman Activ --   117.7027                34.9059                 3.1591

                   112                    113                    114
                     A                      A                      A
 Frequencies --  3285.3791              3288.4537              3298.0732
 Red. masses --     1.0842                 1.0832                 1.0852
 Frc consts  --     6.8947                 6.9012                 6.9548
 IR Inten    --    10.0901                 3.6145                 0.9992
 Raman Activ --    24.6550               132.4200               163.9959

                   115                    116                    117
                     A                      A                      A
 Frequencies --  3300.8957              3304.1940              3313.3693
 Red. masses --     1.0848                 1.0873                 1.0831
 Frc consts  --     6.9639                 6.9940                 7.0061
 IR Inten    --    38.1652                19.3166               176.2872
 Raman Activ --    10.6503                14.2107                89.4887

                   118                    119                    120
                     A                      A                      A
 Frequencies --  3320.8434              3322.4371              3324.5495
 Red. masses --     1.0922                 1.0849                 1.0891
 Frc consts  --     7.0964                 7.0559                 7.0922
 IR Inten    --   126.6747               253.6718                 9.8500
 Raman Activ --    88.8898                86.8065               111.7981

                   121                    122                    123
                     A                      A                      A
 Frequencies --  3330.4302              3336.2766              3358.5381
 Red. masses --     1.1076                 1.0878                 1.0664
 Frc consts  --     7.2380                 7.1337                 7.0870
 IR Inten    --    62.5916                20.1635               348.8990
 Raman Activ --    34.3556                15.4011               135.0496

                   124                    125                    126
                     A                      A                      A
 Frequencies --  3387.5634              3393.5151              3394.5742
 Red. masses --     1.0657                 1.0675                 1.0663
 Frc consts  --     7.2055                 7.2433                 7.2395
 IR Inten    --    25.6092                42.8158                24.3078
 Raman Activ --   114.1419               173.6423               180.7085

                   127                    128                    129
                     A                      A                      A
 Frequencies --  3400.3547              3921.2245              3924.4884
 Red. masses --     1.0668                 1.0673                 1.0677
 Frc consts  --     7.2674                 9.6690                 9.6883
 IR Inten    --    42.0781                49.5294                95.3182
 Raman Activ --   149.5634               127.2454                86.0367

 - Thermochemistry -
 -------------------
 Temperature   298.150 Kelvin.  Pressure   1.00000 Atm.
 Atom     1 has atomic number  8 and mass  15.99491

 Molecular mass:   342.11621 amu.
 Principal axes and moments of inertia in atomic units:
                           1         2         3
     Eigenvalues --  4409.18659********************
           X            0.99997   0.00744  -0.00081
           Y           -0.00744   0.99997   0.00163
           Z            0.00082  -0.00163   1.00000
 This molecule is an asymmetric top.
 Rotational symmetry number  1.
 Warning -- assumption of classical behavior for rotation
           may cause significant error
 Rotational temperatures (Kelvin)      0.01964     0.00705     0.00533
 Rotational constants (GHZ):           0.40931     0.14696     0.11106
    7 imaginary frequencies ignored.
 Zero-point vibrational energy     978964.7 (Joules/Mol)
                                  233.97818 (Kcal/Mol)
 Warning -- explicit consideration of  31 degrees of freedom as
           vibrations may cause significant error
 Vibrational temperatures:     77.28    88.60   105.88   112.97   154.13
          (Kelvin)            200.41   269.76   270.54   281.63   316.62
                              375.32   379.46   401.57   427.34   444.69
                              457.79   475.60   491.55   523.29   557.68
                              578.01   603.48   634.96   643.48   700.59
                              716.67   758.14   778.73   831.22   858.89
                              876.89   912.60   926.30   961.09   995.09
                             1045.53  1060.22  1083.94  1135.98  1202.71
                             1237.06  1246.94  1354.34  1390.05  1421.55
                             1431.48  1445.75  1456.38  1474.24  1485.54
                             1519.01  1533.77  1540.41  1546.41  1549.34
                             1555.37  1573.62  1579.87  1587.13  1604.86
                             1611.10  1621.00  1643.89  1662.89  1667.28
                             1683.90  1703.24  1713.09  1722.65  1734.78
                             1744.16  1764.61  1772.76  1806.01  1822.70
                             1829.05  1855.51  1865.78  1880.70  1886.31
                             1889.85  1893.07  1905.24  1914.50  1925.04
                             1929.44  1939.24  1964.22  1987.02  1993.47
                             2020.07  2028.42  2045.85  2083.42  2101.45
                             2117.92  2129.74  2136.33  2155.80  2182.64
                             4699.97  4706.29  4709.48  4724.41  4726.92
                             4731.35  4745.19  4749.25  4753.99  4767.19
                             4777.95  4780.24  4783.28  4791.74  4800.15
                             4832.18  4873.94  4882.51  4884.03  4892.35
                             5641.76  5646.46

 Zero-point correction=                           0.372868 (Hartree/Particle)
 Thermal correction to Energy=                    0.391199
 Thermal correction to Enthalpy=                  0.392144
 Thermal correction to Gibbs Free Energy=         0.327152
 Sum of electronic and zero-point Energies=          -1297.564242
 Sum of electronic and thermal Energies=             -1297.545910
 Sum of electronic and thermal Enthalpies=           -1297.544966
 Sum of electronic and thermal Free Energies=        -1297.609958

                     E (Thermal)             CV                S
                      KCal/Mol        Cal/Mol-Kelvin    Cal/Mol-Kelvin
 Total                  245.481             75.533            136.787
 Electronic               0.000              0.000              0.000
 Translational            0.889              2.981             43.384
 Rotational               0.889              2.981             35.130
 Vibrational            243.704             69.571             58.272
 Vibration     1          0.596              1.976              4.676
 Vibration     2          0.597              1.973              4.406
 Vibration     3          0.599              1.966              4.055
 Vibration     4          0.600              1.964              3.928
 Vibration     5          0.606              1.944              3.320
 Vibration     6          0.615              1.914              2.814
 Vibration     7          0.632              1.857              2.252
 Vibration     8          0.633              1.856              2.247
 Vibration     9          0.636              1.846              2.173
 Vibration    10          0.647              1.811              1.959
 Vibration    11          0.669              1.744              1.656
 Vibration    12          0.670              1.739              1.637
 Vibration    13          0.679              1.712              1.539
 Vibration    14          0.691              1.679              1.434
 Vibration    15          0.698              1.656              1.367
 Vibration    16          0.705              1.639              1.319
 Vibration    17          0.713              1.614              1.257
 Vibration    18          0.721              1.592              1.204
 Vibration    19          0.737              1.547              1.106
 Vibration    20          0.756              1.497              1.009
 Vibration    21          0.767              1.466              0.956
 Vibration    22          0.782              1.428              0.894
 Vibration    23          0.801              1.380              0.822
 Vibration    24          0.806              1.367              0.804
 Vibration    25          0.843              1.279              0.692
 Vibration    26          0.854              1.254              0.663
 Vibration    27          0.882              1.190              0.594
 Vibration    28          0.896              1.159              0.563
 Vibration    29          0.934              1.079              0.490
 Vibration    30          0.955              1.038              0.455
 Vibration    31          0.968              1.012              0.434

 Normal termination of Gaussian 09 at Tue Mar  1 16:25:11 2016.
