 Gaussian 09, Revision B.01,
 Gaussian 09:  EM64L-G09RevB.01 12-Aug-2010

 -------------------------------------------------
 # freq=raman b3lyp/6-31+g(2d,p) geom=connectivity
 -------------------------------------------------

 -----------------
 493 7180/7180.com
 -----------------
 Symbolic Z-matrix:
 Charge =  0 Multiplicity = 1

                         Standard orientation:
 ---------------------------------------------------------------------
 Center     Atomic      Atomic             Coordinates (Angstroms)
 Number     Number       Type             X           Y           Z
 ---------------------------------------------------------------------
      1          8           0       -4.963720   -0.603177    0.273034
      2          6           0       -3.714478   -0.128950   -0.252028
      3          6           0       -3.333982    1.258314    0.238038
      4          8           0       -4.259928    2.334849    0.033193
      5          1           0       -5.123395    2.001998    0.413225
      6          6           0       -1.945047    1.587015   -0.283964
      7          8           0       -1.375712    2.831828    0.145814
      8          1           0       -0.421048    2.812066   -0.153433
      9          6           0       -2.886539   -2.622576   -0.115213
     10          8           0       -4.020743   -3.285835    0.463164
     11          1           0       -3.934125   -4.261482    0.261673
     12          6           0       -2.661015   -1.144734    0.158231
     13          8           0       -1.350210   -0.820911   -0.329434
     14          6           0       -0.978569    0.488017    0.126438
     15          8           0        0.260792    0.732527   -0.553670
     16          6           0        1.389908    0.219602    0.168534
     17          6           0        1.963295   -1.103625   -0.310762
     18          8           0        1.010243   -2.170629   -0.191735
     19          1           0        0.140909   -1.881420   -0.591418
     20          6           0        3.325432   -1.512134    0.224185
     21          8           0        3.819758   -2.670828   -0.463237
     22          1           0        4.750600   -2.879723   -0.164630
     23          6           0        2.325950    2.587979    0.199818
     24          8           0        1.197945    3.302501   -0.324570
     25          1           0        1.199468    4.289269   -0.162084
     26          6           0        2.557700    1.132390   -0.172965
     27          8           0        3.811112    0.777332    0.428185
     28          6           0        4.383710   -0.452852   -0.038288
     29          8           0        5.636537   -0.518588    0.658411
     30          1           0        6.354734   -0.556147    0.022500
     31          1           0        4.565107   -0.384450   -1.090579
     32          1           0        3.261026   -1.710883    1.273590
     33          1           0        2.108989   -0.974445   -1.362896
     34          1           0        1.207768    0.206431    1.222836
     35          1           0        2.690085    1.091396   -1.233952
     36          1           0        3.202605    3.129563   -0.088390
     37          1           0        2.257491    2.632039    1.266716
     38          1           0       -5.546769   -0.839057   -0.452234
     39          1           0       -2.011811   -3.143745    0.213623
     40          1           0       -2.955125   -2.742626   -1.176242
     41          1           0       -2.599172   -1.063034    1.223313
     42          1           0       -3.776186   -0.109995   -1.320079
     43          1           0       -3.233117    1.169246    1.299543
     44          1           0       -1.993236    1.601328   -1.352782
     45          1           0       -0.831593    0.490437    1.186293
 ---------------------------------------------------------------------

 SCF Done:  E(RB3LYP) =  -1297.97688199     A.U. after   13 cycles

 The electronic state is 1-A.
 Alpha  occ. eigenvalues --  -19.18699 -19.18613 -19.18564 -19.17903 -19.17227
 Alpha  occ. eigenvalues --  -19.16751 -19.16127 -19.16048 -19.15822 -19.13553
 Alpha  occ. eigenvalues --  -19.13188 -10.30739 -10.30431 -10.25702 -10.25557
 Alpha  occ. eigenvalues --  -10.25536 -10.25410 -10.25370 -10.24726 -10.24551
 Alpha  occ. eigenvalues --  -10.24538 -10.24296 -10.24236  -1.10460  -1.09103
 Alpha  occ. eigenvalues --   -1.05364  -1.04670  -1.03900  -1.03260  -1.03108
 Alpha  occ. eigenvalues --   -1.02574  -1.02249  -1.00571  -1.00021  -0.82294
 Alpha  occ. eigenvalues --   -0.80922  -0.79192  -0.78294  -0.71834  -0.70087
 Alpha  occ. eigenvalues --   -0.67582  -0.64955  -0.62858  -0.62438  -0.61627
 Alpha  occ. eigenvalues --   -0.60372  -0.56657  -0.55804  -0.55233  -0.54675
 Alpha  occ. eigenvalues --   -0.53807  -0.53305  -0.53045  -0.51623  -0.50852
 Alpha  occ. eigenvalues --   -0.50285  -0.50178  -0.49870  -0.48413  -0.46651
 Alpha  occ. eigenvalues --   -0.46339  -0.45055  -0.44630  -0.43897  -0.43664
 Alpha  occ. eigenvalues --   -0.42419  -0.42073  -0.40755  -0.40115  -0.39770
 Alpha  occ. eigenvalues --   -0.38287  -0.38095  -0.37022  -0.36567  -0.36287
 Alpha  occ. eigenvalues --   -0.35446  -0.34931  -0.34671  -0.33718  -0.33544
 Alpha  occ. eigenvalues --   -0.33039  -0.31193  -0.30811  -0.29991  -0.29842
 Alpha  occ. eigenvalues --   -0.29486  -0.28579  -0.27834  -0.27368  -0.26854
 Alpha  occ. eigenvalues --   -0.25958
 Alpha virt. eigenvalues --   -0.02164  -0.01846  -0.01397  -0.00108   0.00279
 Alpha virt. eigenvalues --    0.00787   0.01727   0.01978   0.03166   0.03385
 Alpha virt. eigenvalues --    0.03799   0.04348   0.04957   0.05257   0.05521

 Mulliken atomic charges:
              1
     1  O   -0.525336
     2  C    0.077756
     3  C    0.089934
     4  O   -0.538478
     5  H    0.338101
     6  C   -0.133673
     7  O   -0.585709
     8  H    0.438801
     9  C   -0.193021
    10  O   -0.514173
    11  H    0.335782
    12  C    0.066330
    13  O   -0.262365
    14  C    0.198407
    15  O   -0.219239
    16  C    0.386454
    17  C   -0.058456
    18  O   -0.560647
    19  H    0.364627
    20  C    0.331980
    21  O   -0.538191
    22  H    0.336143
    23  C   -0.242595
    24  O   -0.573683
    25  H    0.364173
    26  C   -0.033195
    27  O   -0.253018
    28  C   -0.028767
    29  O   -0.525979
    30  H    0.335741
    31  H    0.127484
    32  H    0.130114
    33  H    0.114801
    34  H    0.113978
    35  H    0.119126
    36  H    0.146510
    37  H    0.151384
    38  H    0.335630
    39  H    0.157319
    40  H    0.136825
    41  H    0.112511
    42  H    0.112549
    43  H    0.111200
    44  H    0.124645
    45  H    0.128223
 Sum of Mulliken atomic charges =   0.00000

 Dipole moment (field-independent basis, Debye):
    X=              2.2782    Y=             -0.6056    Z=             -1.8576  Tot=              3.0013
 Quadrupole moment (field-independent basis, Debye-Ang):
   XX=           -117.0452   YY=           -138.2631   ZZ=           -139.0275
   XY=             14.7380   XZ=              0.1059   YZ=              2.6132

  Exact polarizability: 234.778  -1.692 197.932  -0.094   1.530 143.309
 Approx polarizability: 275.297  -1.467 257.687  -1.030   1.610 239.867

 ******    7 imaginary frequencies (negative Signs) ******

                     1                      2                      3
                     A                      A                      A
 Frequencies --  -296.7511              -284.3773              -252.7472
 Red. masses --     1.5731                 1.7971                 1.2299
 Frc consts  --     0.0816                 0.0856                 0.0463
 IR Inten    --    31.0766                 5.0319                68.5253
 Raman Activ --     0.2350                 0.0806                 0.6838

                     4                      5                      6
                     A                      A                      A
 Frequencies --  -202.4579               -83.7023               -46.8039
 Red. masses --     1.2347                 6.8870                 6.0029
 Frc consts  --     0.0298                 0.0284                 0.0077
 IR Inten    --    96.7457                 1.0620                 0.6679
 Raman Activ --     0.6064                 0.0263                 0.0248

                     7                      8                      9
                     A                      A                      A
 Frequencies --   -34.7391                45.6772                54.3996
 Red. masses --     6.7840                 6.5869                 6.7594
 Frc consts  --     0.0048                 0.0081                 0.0118
 IR Inten    --     1.1016                 0.4827                 0.9008
 Raman Activ --     0.0218                 0.0422                 0.0206

                    10                     11                     12
                     A                      A                      A
 Frequencies --    88.9755               106.9480               127.7315
 Red. masses --     6.4264                 6.3264                 5.6053
 Frc consts  --     0.0300                 0.0426                 0.0539
 IR Inten    --     0.8158                 1.9807                 1.7621
 Raman Activ --     0.3665                 0.0342                 0.1235

                    13                     14                     15
                     A                      A                      A
 Frequencies --   161.6392               181.4145               198.7363
 Red. masses --     6.2709                 5.4844                 8.0916
 Frc consts  --     0.0965                 0.1063                 0.1883
 IR Inten    --     4.8304                 0.7882                 1.0873
 Raman Activ --     0.3226                 0.3284                 0.5366

                    16                     17                     18
                     A                      A                      A
 Frequencies --   212.6173               239.1710               255.5348
 Red. masses --     7.2083                 5.6391                 5.4250
 Frc consts  --     0.1920                 0.1901                 0.2087
 IR Inten    --     0.4348                 2.0092                11.2279
 Raman Activ --     2.8397                 0.5846                 0.5883

                    19                     20                     21
                     A                      A                      A
 Frequencies --   268.7252               277.2959               299.1491
 Red. masses --     4.2051                 4.6956                 4.7627
 Frc consts  --     0.1789                 0.2127                 0.2511
 IR Inten    --     8.1125                 0.5675                 0.7482
 Raman Activ --     0.0591                 0.3953                 0.5953

                    22                     23                     24
                     A                      A                      A
 Frequencies --   314.0136               317.4425               325.1354
 Red. masses --     5.0903                 6.5504                 6.0548
 Frc consts  --     0.2957                 0.3889                 0.3771
 IR Inten    --     5.0414                 3.4374                 3.5125
 Raman Activ --     0.1751                 4.0302                 2.3413

                    25                     26                     27
                     A                      A                      A
 Frequencies --   347.4305               356.0697               393.3432
 Red. masses --     6.7652                 4.3749                 4.6248
 Frc consts  --     0.4811                 0.3268                 0.4216
 IR Inten    --     7.0220                 3.3097                 4.6726
 Raman Activ --     3.5965                 0.3522                 0.2881

                    28                     29                     30
                     A                      A                      A
 Frequencies --   400.7793               420.7939               427.3444
 Red. masses --     6.7195                 5.6636                 5.6529
 Frc consts  --     0.6359                 0.5909                 0.6082
 IR Inten    --     5.6209                15.8782                 7.7709
 Raman Activ --     2.6793                 5.4230                 5.0597

                    31                     32                     33
                     A                      A                      A
 Frequencies --   446.3668               475.0509               480.1530
 Red. masses --     4.4423                 4.7011                 4.0375
 Frc consts  --     0.5215                 0.6251                 0.5484
 IR Inten    --     5.0682                 8.6886                18.0172
 Raman Activ --     1.7969                 2.9953                 0.7491

                    34                     35                     36
                     A                      A                      A
 Frequencies --   511.4639               520.5102               572.1469
 Red. masses --     3.4164                 3.8169                 3.9618
 Frc consts  --     0.5266                 0.6093                 0.7641
 IR Inten    --     1.7579                14.2874                 7.9317
 Raman Activ --     4.5625                 1.2557                 1.8472

                    37                     38                     39
                     A                      A                      A
 Frequencies --   587.5634               608.0602               627.8197
 Red. masses --     3.1012                 5.8508                 5.5933
 Frc consts  --     0.6308                 1.2746                 1.2989
 IR Inten    --    51.9287                 2.5704                 4.6187
 Raman Activ --     0.9743                 0.8174                 0.2988

                    40                     41                     42
                     A                      A                      A
 Frequencies --   639.2993               672.8099               688.2808
 Red. masses --     4.2625                 1.0715                 6.0567
 Frc consts  --     1.0264                 0.2858                 1.6905
 IR Inten    --    39.2617               107.0171                19.3275
 Raman Activ --     0.8052                 1.8654                 1.0980

                    43                     44                     45
                     A                      A                      A
 Frequencies --   707.7414               714.5093               730.4851
 Red. masses --     1.0655                 1.0607                 1.0777
 Frc consts  --     0.3145                 0.3191                 0.3388
 IR Inten    --    95.0335               116.8046               182.9915
 Raman Activ --     1.6768                 2.2139                 4.5993

                    46                     47                     48
                     A                      A                      A
 Frequencies --   749.9964               850.1061               858.8825
 Red. masses --     1.0873                 1.8283                 1.4050
 Frc consts  --     0.3604                 0.7785                 0.6106
 IR Inten    --    92.6884                 7.8591                27.9724
 Raman Activ --     1.7957                 0.7491                 0.8743

                    49                     50                     51
                     A                      A                      A
 Frequencies --   882.1366               927.9453               945.8827
 Red. masses --     1.2415                 6.3147                 6.2257
 Frc consts  --     0.5692                 3.2037                 3.2818
 IR Inten    --    39.6805               186.6351                16.2458
 Raman Activ --     0.5362                 3.8866                 0.8836

                    52                     53                     54
                     A                      A                      A
 Frequencies --   973.3712               974.1449               981.9996
 Red. masses --     5.2871                 4.7729                 5.1398
 Frc consts  --     2.9514                 2.6686                 2.9202
 IR Inten    --   238.2850                 5.8196                15.1482
 Raman Activ --     0.9518                 1.7576                 1.9347

                    55                     56                     57
                     A                      A                      A
 Frequencies --   996.4108              1003.8764              1019.1675
 Red. masses --     7.8143                 5.4668                 5.0479
 Frc consts  --     4.5711                 3.2460                 3.0892
 IR Inten    --    61.3422               135.7972               193.4402
 Raman Activ --     2.3710                 1.0615                 1.8406

                    58                     59                     60
                     A                      A                      A
 Frequencies --  1032.1902              1047.9459              1062.8748
 Red. masses --     7.1548                 4.3491                 4.4994
 Frc consts  --     4.4913                 2.8140                 2.9948
 IR Inten    --   453.1296               123.5919                19.5149
 Raman Activ --     2.8115                 5.4279                 2.6293

                    61                     62                     63
                     A                      A                      A
 Frequencies --  1066.1577              1074.1985              1081.1426
 Red. masses --     4.6942                 3.7806                 6.2939
 Frc consts  --     3.1438                 2.5703                 4.3344
 IR Inten    --    34.6978                41.1921                 8.4675
 Raman Activ --     4.4225                23.3027                 5.6832

                    64                     65                     66
                     A                      A                      A
 Frequencies --  1098.9238              1104.2096              1112.3176
 Red. masses --     2.5782                 2.7186                 2.5395
 Frc consts  --     1.8344                 1.9530                 1.8512
 IR Inten    --    48.8329               105.4567                55.1442
 Raman Activ --     6.1042                 4.9496                 1.5175

                    67                     68                     69
                     A                      A                      A
 Frequencies --  1116.3851              1118.9007              1143.8257
 Red. masses --     2.5415                 3.1472                 2.6839
 Frc consts  --     1.8662                 2.3214                 2.0689
 IR Inten    --    39.1299                12.8038                27.1008
 Raman Activ --     2.5310                14.4933                10.5491

                    70                     71                     72
                     A                      A                      A
 Frequencies --  1147.7002              1150.9161              1167.8396
 Red. masses --     2.7749                 2.2974                 1.7568
 Frc consts  --     2.1535                 1.7930                 1.4117
 IR Inten    --    52.9433                 2.0050                 3.2584
 Raman Activ --     3.0549                 4.3059                 0.5597

                    73                     74                     75
                     A                      A                      A
 Frequencies --  1175.4825              1185.5030              1192.6065
 Red. masses --     1.7907                 1.8537                 1.7397
 Frc consts  --     1.4578                 1.5350                 1.4579
 IR Inten    --     5.5337                 6.5115                22.3549
 Raman Activ --     3.0002                 0.6139                 2.0484

                    76                     77                     78
                     A                      A                      A
 Frequencies --  1211.6078              1213.2164              1235.9889
 Red. masses --     1.4797                 1.3968                 1.2384
 Frc consts  --     1.2798                 1.2113                 1.1147
 IR Inten    --     7.2278                 8.7712                 8.6254
 Raman Activ --     2.7831                 1.2446                 0.4663

                    79                     80                     81
                     A                      A                      A
 Frequencies --  1243.5681              1250.9240              1259.0658
 Red. masses --     1.2852                 1.2374                 1.2582
 Frc consts  --     1.1710                 1.1408                 1.1751
 IR Inten    --    10.3000                 5.6818                22.2605
 Raman Activ --     1.1419                 3.0640                 2.2313

                    82                     83                     84
                     A                      A                      A
 Frequencies --  1274.2988              1284.1687              1286.8619
 Red. masses --     1.2275                 1.2104                 1.3530
 Frc consts  --     1.1744                 1.1760                 1.3202
 IR Inten    --    13.7110                10.7450                72.4968
 Raman Activ --     4.1905                 1.0021                 4.3662

                    85                     86                     87
                     A                      A                      A
 Frequencies --  1292.1825              1298.2492              1307.4264
 Red. masses --     1.2708                 1.2386                 1.3233
 Frc consts  --     1.2502                 1.2300                 1.3328
 IR Inten    --     0.3859                 3.0547                17.8540
 Raman Activ --     4.1713                 1.8959                 1.9028

                    88                     89                     90
                     A                      A                      A
 Frequencies --  1319.8621              1325.4058              1333.8651
 Red. masses --     1.1856                 1.2659                 1.2677
 Frc consts  --     1.2169                 1.3102                 1.3289
 IR Inten    --     3.7263                32.4304                38.4392
 Raman Activ --     4.5061                 2.3379                 9.2233

                    91                     92                     93
                     A                      A                      A
 Frequencies --  1336.0240              1347.9100              1359.8672
 Red. masses --     1.2204                 1.2021                 1.2529
 Frc consts  --     1.2834                 1.2868                 1.3651
 IR Inten    --    21.9867                40.9572                26.6873
 Raman Activ --     8.2289                 1.3973                 3.9634

                    94                     95                     96
                     A                      A                      A
 Frequencies --  1366.9145              1374.2768              1390.3841
 Red. masses --     1.4085                 1.3349                 1.3044
 Frc consts  --     1.5506                 1.4854                 1.4857
 IR Inten    --     2.9207                42.2735                 2.3532
 Raman Activ --     6.9216                 6.7589                 5.8105

                    97                     98                     99
                     A                      A                      A
 Frequencies --  1391.1606              1395.8460              1402.2219
 Red. masses --     1.3801                 1.4061                 1.4395
 Frc consts  --     1.5736                 1.6141                 1.6677
 IR Inten    --     6.8054                 2.3420                 1.1624
 Raman Activ --     3.1882                 2.6477                 3.6332

                   100                    101                    102
                     A                      A                      A
 Frequencies --  1423.6711              1441.1146              1461.0970
 Red. masses --     1.4888                 1.4261                 1.3430
 Frc consts  --     1.7779                 1.7450                 1.6892
 IR Inten    --    35.2324                13.9759                35.7491
 Raman Activ --     0.8177                 0.8467                 1.0157

                   103                    104                    105
                     A                      A                      A
 Frequencies --  1471.8700              1476.0775              1476.8789
 Red. masses --     1.2575                 1.0838                 1.1942
 Frc consts  --     1.6051                 1.3913                 1.5346
 IR Inten    --    13.1023                 2.3378                 4.0714
 Raman Activ --     5.3384                 4.7381                 1.2098

                   106                    107                    108
                     A                      A                      A
 Frequencies --  1495.4646              1520.8320              3229.6476
 Red. masses --     1.2976                 1.2593                 1.0691
 Frc consts  --     1.7098                 1.7161                 6.5699
 IR Inten    --    30.8471                78.1394               887.6081
 Raman Activ --     1.8562                 2.5962               139.2610

                   109                    110                    111
                     A                      A                      A
 Frequencies --  3252.5426              3254.6414              3259.1130
 Red. masses --     1.0630                 1.0812                 1.0765
 Frc consts  --     6.6258                 6.7477                 6.7369
 IR Inten    --    17.5265                29.1414                39.9250
 Raman Activ --    83.5070                 1.6538               120.2760

                   112                    113                    114
                     A                      A                      A
 Frequencies --  3261.4685              3263.1509              3271.6189
 Red. masses --     1.0606                 1.0782                 1.0814
 Frc consts  --     6.6468                 6.7646                 6.8198
 IR Inten    --    14.4154                12.5518                10.7963
 Raman Activ --   153.9012                81.0441                59.6205

                   115                    116                    117
                     A                      A                      A
 Frequencies --  3276.7652              3281.0257              3286.0884
 Red. masses --     1.0831                 1.0845                 1.0862
 Frc consts  --     6.8517                 6.8788                 6.9105
 IR Inten    --     1.7106                11.5500                14.4838
 Raman Activ --    38.6639               125.9023                47.1734

                   118                    119                    120
                     A                      A                      A
 Frequencies --  3292.9531              3297.4642              3301.6570
 Red. masses --     1.0865                 1.0868                 1.0874
 Frc consts  --     6.9417                 6.9623                 6.9839
 IR Inten    --    31.4447                10.3064                87.2547
 Raman Activ --    11.4711                 7.4510                24.7275

                   121                    122                    123
                     A                      A                      A
 Frequencies --  3308.4652              3313.8501              3329.7843
 Red. masses --     1.1050                 1.1048                 1.0669
 Frc consts  --     7.1261                 7.1480                 6.9698
 IR Inten    --    46.6899                60.8448               490.8095
 Raman Activ --    36.6987                52.8579               152.4309

                   124                    125                    126
                     A                      A                      A
 Frequencies --  3367.3730              3367.7215              3370.7764
 Red. masses --     1.0661                 1.0662                 1.0668
 Frc consts  --     7.1228                 7.1246                 7.1418
 IR Inten    --    29.2167                49.2770                94.1901
 Raman Activ --    84.3791               186.5962                66.1017

                   127                    128                    129
                     A                      A                      A
 Frequencies --  3371.0308              3890.0454              3892.9098
 Red. masses --     1.0672                 1.0676                 1.0676
 Frc consts  --     7.1454                 9.5189                 9.5322
 IR Inten    --    24.3703                80.0505                84.6042
 Raman Activ --   237.2067                86.5254               114.7597

 - Thermochemistry -
 -------------------
 Temperature   298.150 Kelvin.  Pressure   1.00000 Atm.
 Atom     1 has atomic number  8 and mass  15.99491

 Molecular mass:   342.11621 amu.
 Principal axes and moments of inertia in atomic units:
                           1         2         3
     Eigenvalues --  4436.83211********************
           X            0.99997   0.00797  -0.00061
           Y           -0.00797   0.99996   0.00296
           Z            0.00063  -0.00296   1.00000
 This molecule is an asymmetric top.
 Rotational symmetry number  1.
 Warning -- assumption of classical behavior for rotation
           may cause significant error
 Rotational temperatures (Kelvin)      0.01952     0.00706     0.00531
 Rotational constants (GHZ):           0.40676     0.14714     0.11056
    7 imaginary frequencies ignored.
 Zero-point vibrational energy     975279.9 (Joules/Mol)
                                  233.09748 (Kcal/Mol)
 Warning -- explicit consideration of  31 degrees of freedom as
           vibrations may cause significant error
 Vibrational temperatures:     65.72    78.27   128.02   153.87   183.78
          (Kelvin)            232.56   261.01   285.94   305.91   344.11
                              367.66   386.64   398.97   430.41   451.79
                              456.73   467.80   499.87   512.30   565.93
                              576.63   605.43   614.85   642.22   683.49
                              690.83   735.88   748.90   823.19   845.37
                              874.86   903.29   919.81   968.02   990.28
                             1018.28  1028.02  1051.00  1079.08  1223.11
                             1235.74  1269.20  1335.10  1360.91  1400.46
                             1401.58  1412.88  1433.61  1444.35  1466.35
                             1485.09  1507.76  1529.24  1533.96  1545.53
                             1555.52  1581.10  1588.71  1600.38  1606.23
                             1609.85  1645.71  1651.28  1655.91  1680.26
                             1691.26  1705.67  1715.89  1743.23  1745.55
                             1778.31  1789.21  1799.80  1811.51  1833.43
                             1847.63  1851.50  1859.16  1867.89  1881.09
                             1898.98  1906.96  1919.13  1922.24  1939.34
                             1956.54  1966.68  1977.28  2000.45  2001.57
                             2008.31  2017.48  2048.34  2073.44  2102.19
                             2117.69  2123.74  2124.90  2151.64  2188.14
                             4646.74  4679.68  4682.70  4689.13  4692.52
                             4694.94  4707.12  4714.53  4720.66  4727.94
                             4737.82  4744.31  4750.34  4760.14  4767.89
                             4790.81  4844.89  4845.39  4849.79  4850.16
                             5596.90  5601.02

 Zero-point correction=                           0.371464 (Hartree/Particle)
 Thermal correction to Energy=                    0.389720
 Thermal correction to Enthalpy=                  0.390664
 Thermal correction to Gibbs Free Energy=         0.326146
 Sum of electronic and zero-point Energies=          -1297.605418
 Sum of electronic and thermal Energies=             -1297.587162
 Sum of electronic and thermal Enthalpies=           -1297.586218
 Sum of electronic and thermal Free Energies=        -1297.650736

                     E (Thermal)             CV                S
                      KCal/Mol        Cal/Mol-Kelvin    Cal/Mol-Kelvin
 Total                  244.553             75.866            135.790
 Electronic               0.000              0.000              0.000
 Translational            0.889              2.981             43.384
 Rotational               0.889              2.981             35.139
 Vibrational            242.776             69.904             57.266
 Vibration     1          0.595              1.979              4.996
 Vibration     2          0.596              1.976              4.651
 Vibration     3          0.602              1.957              3.682
 Vibration     4          0.606              1.944              3.324
 Vibration     5          0.611              1.925              2.980
 Vibration     6          0.622              1.889              2.531
 Vibration     7          0.630              1.865              2.314
 Vibration     8          0.637              1.842              2.145
 Vibration     9          0.644              1.822              2.021
 Vibration    10          0.657              1.781              1.809
 Vibration    11          0.666              1.753              1.692
 Vibration    12          0.673              1.731              1.604
 Vibration    13          0.678              1.715              1.550
 Vibration    14          0.692              1.675              1.422
 Vibration    15          0.702              1.647              1.341
 Vibration    16          0.704              1.640              1.323
 Vibration    17          0.709              1.625              1.284
 Vibration    18          0.725              1.580              1.178
 Vibration    19          0.732              1.563              1.139
 Vibration    20          0.761              1.484              0.987
 Vibration    21          0.767              1.468              0.960
 Vibration    22          0.783              1.425              0.889
 Vibration    23          0.789              1.411              0.867
 Vibration    24          0.806              1.369              0.807
 Vibration    25          0.832              1.305              0.724
 Vibration    26          0.837              1.294              0.710
 Vibration    27          0.867              1.225              0.630
 Vibration    28          0.875              1.205              0.609
 Vibration    29          0.928              1.091              0.500
 Vibration    30          0.945              1.058              0.472
 Vibration    31          0.967              1.015              0.436

 Normal termination of Gaussian 09 at Fri Apr  1 08:40:43 2016.
