 Gaussian 09, Revision B.01,
 Gaussian 09:  EM64L-G09RevB.01 12-Aug-2010

 -------------------------------------------------
 # freq=raman b3lyp/6-31+g(2d,p) geom=connectivity
 -------------------------------------------------

 -----------------
 310 8336/8336.com
 -----------------
 Symbolic Z-matrix:
 Charge =  0 Multiplicity = 1

                         Standard orientation:
 ---------------------------------------------------------------------
 Center     Atomic      Atomic             Coordinates (Angstroms)
 Number     Number       Type             X           Y           Z
 ---------------------------------------------------------------------
      1          8           0        5.059849   -0.406532   -0.233647
      2          6           0        3.714369   -0.127865    0.178108
      3          6           0        3.235731    1.261196   -0.211562
      4          8           0        4.082189    2.296445    0.309408
      5          1           0        4.995640    1.905447    0.423269
      6          6           0        1.820462    1.610055    0.217845
      7          8           0        1.313857    2.772150   -0.455350
      8          1           0        0.454712    2.975525    0.014415
      9          6           0        3.036631   -2.595740    0.065215
     10          8           0        4.262385   -3.143515   -0.439992
     11          1           0        4.182088   -4.129813   -0.295445
     12          6           0        2.707032   -1.158681   -0.305125
     13          8           0        1.440742   -0.796080    0.265545
     14          6           0        0.908022    0.460561   -0.178946
     15          8           0       -0.294966    0.790074    0.530303
     16          6           0       -1.521635    0.295374   -0.026498
     17          6           0       -1.881425   -1.072933    0.528237
     18          8           0       -0.919665   -2.002427    0.008662
     19          1           0       -0.040009   -1.590131    0.247448
     20          6           0       -3.206832   -1.613511    0.017737
     21          8           0       -3.777400   -2.827512    0.528116
     22          1           0       -4.723407   -2.976085    0.237059
     23          6           0       -2.540388    2.617862   -0.193475
     24          8           0       -1.377256    3.356069    0.208043
     25          1           0       -1.594293    4.329252    0.144380
     26          6           0       -2.724889    1.179196    0.261951
     27          8           0       -3.881968    0.708148   -0.444602
     28          6           0       -4.293341   -0.554851    0.099335
     29          8           0       -5.389285   -0.845723   -0.780291
     30          1           0       -6.137130   -1.159754   -0.266761
     31          1           0       -3.394778    3.167485    0.142430
     32          1           0       -2.559060    2.615307   -1.263309
     33          1           0       -2.925613    1.166524    1.312879
     34          1           0       -1.404906    0.213847   -1.086982
     35          1           0       -1.860755   -1.067085    1.598022
     36          1           0       -3.051414   -1.792304   -1.025708
     37          1           0       -4.637505   -0.438810    1.105807
     38          1           0        2.235134   -3.214398   -0.280857
     39          1           0        3.065790   -2.659543    1.132913
     40          1           0        2.633948   -1.090173   -1.370426
     41          1           0        5.589033   -0.633603    0.534470
     42          1           0        3.707294   -0.167626    1.247346
     43          1           0        3.271392    1.322471   -1.279211
     44          1           0        1.784702    1.756106    1.277227
     45          1           0        0.738868    0.454603   -1.235474
 ---------------------------------------------------------------------

 SCF Done:  E(RB3LYP) =  -1297.98681432     A.U. after   13 cycles

 The electronic state is 1-A.
 Alpha  occ. eigenvalues --  -19.19164 -19.18631 -19.18001 -19.17962 -19.17738
 Alpha  occ. eigenvalues --  -19.17130 -19.16687 -19.16145 -19.14955 -19.13771
 Alpha  occ. eigenvalues --  -19.13238 -10.30444 -10.30197 -10.26289 -10.25902
 Alpha  occ. eigenvalues --  -10.25434 -10.25341 -10.24733 -10.24598 -10.24494
 Alpha  occ. eigenvalues --  -10.24353 -10.23992 -10.23895  -1.10377  -1.09327
 Alpha  occ. eigenvalues --   -1.05689  -1.04867  -1.04318  -1.03326  -1.03195
 Alpha  occ. eigenvalues --   -1.02500  -1.02021  -1.00783  -1.00141  -0.82218
 Alpha  occ. eigenvalues --   -0.80424  -0.78900  -0.78326  -0.72003  -0.69962
 Alpha  occ. eigenvalues --   -0.67285  -0.64874  -0.62957  -0.62953  -0.61522
 Alpha  occ. eigenvalues --   -0.60290  -0.56461  -0.55899  -0.55179  -0.54583
 Alpha  occ. eigenvalues --   -0.54124  -0.53078  -0.52671  -0.52236  -0.51578
 Alpha  occ. eigenvalues --   -0.50851  -0.50021  -0.49236  -0.48616  -0.46143
 Alpha  occ. eigenvalues --   -0.45914  -0.45157  -0.44076  -0.43906  -0.43025
 Alpha  occ. eigenvalues --   -0.42603  -0.42125  -0.41026  -0.40478  -0.39565
 Alpha  occ. eigenvalues --   -0.39016  -0.37957  -0.37471  -0.36878  -0.36144
 Alpha  occ. eigenvalues --   -0.35448  -0.34556  -0.34371  -0.34096  -0.33754
 Alpha  occ. eigenvalues --   -0.32521  -0.31598  -0.30943  -0.30281  -0.30004
 Alpha  occ. eigenvalues --   -0.29504  -0.28905  -0.28355  -0.27973  -0.26352
 Alpha  occ. eigenvalues --   -0.26180
 Alpha virt. eigenvalues --   -0.02248  -0.02204  -0.01741  -0.00425   0.00300
 Alpha virt. eigenvalues --    0.01191   0.01937   0.02459   0.03532   0.03651
 Alpha virt. eigenvalues --    0.03926   0.04359   0.04835   0.05438   0.05511

 Mulliken atomic charges:
              1
     1  O   -0.532034
     2  C   -0.170167
     3  C    0.266542
     4  O   -0.556146
     5  H    0.332831
     6  C    0.023283
     7  O   -0.543556
     8  H    0.396599
     9  C   -0.187676
    10  O   -0.502020
    11  H    0.337251
    12  C    0.144601
    13  O   -0.284941
    14  C    0.208813
    15  O   -0.225121
    16  C    0.000121
    17  C    0.346363
    18  O   -0.583459
    19  H    0.407691
    20  C    0.059545
    21  O   -0.565985
    22  H    0.330163
    23  C   -0.285655
    24  O   -0.555343
    25  H    0.358864
    26  C   -0.029257
    27  O   -0.228719
    28  C    0.032718
    29  O   -0.523587
    30  H    0.327672
    31  H    0.141334
    32  H    0.156925
    33  H    0.117806
    34  H    0.123509
    35  H    0.124538
    36  H    0.136099
    37  H    0.129283
    38  H    0.155095
    39  H    0.140556
    40  H    0.116794
    41  H    0.343231
    42  H    0.117026
    43  H    0.123226
    44  H    0.136731
    45  H    0.138456
 Sum of Mulliken atomic charges =   0.00000

 Dipole moment (field-independent basis, Debye):
    X=             -2.3852    Y=             -0.6857    Z=              2.9835  Tot=              3.8808
 Quadrupole moment (field-independent basis, Debye-Ang):
   XX=           -118.7511   YY=           -135.4197   ZZ=           -139.7030
   XY=            -17.0094   XZ=              2.4244   YZ=              0.6463

  Exact polarizability: 232.912   1.467 197.671   0.870  -0.179 143.644
 Approx polarizability: 273.798   0.342 257.370   0.584   0.873 239.473

 ******    6 imaginary frequencies (negative Signs) ******

                     1                      2                      3
                     A                      A                      A
 Frequencies --  -276.3610              -274.4235              -223.2174
 Red. masses --     1.7490                 1.7709                 1.2403
 Frc consts  --     0.0787                 0.0786                 0.0364
 IR Inten    --    14.7945                 1.7203               106.6570
 Raman Activ --     0.0981                 0.0530                 0.8481

                     4                      5                      6
                     A                      A                      A
 Frequencies --  -206.6495               -80.5534               -62.7632
 Red. masses --     1.2444                 6.5251                 6.3528
 Frc consts  --     0.0313                 0.0249                 0.0147
 IR Inten    --    93.3066                 1.7937                 0.3849
 Raman Activ --     0.8209                 0.0248                 0.0422

                     7                      8                      9
                     A                      A                      A
 Frequencies --    25.8158                32.7380                54.4579
 Red. masses --     6.7095                 6.5869                 6.0060
 Frc consts  --     0.0026                 0.0042                 0.0105
 IR Inten    --     0.5313                 0.8294                 2.9924
 Raman Activ --     0.0090                 0.0304                 0.0604

                    10                     11                     12
                     A                      A                      A
 Frequencies --    74.4263                84.5126               115.5117
 Red. masses --     6.4746                 6.4673                 5.6923
 Frc consts  --     0.0211                 0.0272                 0.0447
 IR Inten    --     0.0558                 0.8676                 0.6818
 Raman Activ --     0.0623                 0.3168                 0.1073

                    13                     14                     15
                     A                      A                      A
 Frequencies --   151.5579               188.3846               191.6489
 Red. masses --     6.2607                 5.7170                 6.8720
 Frc consts  --     0.0847                 0.1195                 0.1487
 IR Inten    --     2.4239                 2.1298                 0.3216
 Raman Activ --     0.6856                 0.0963                 0.3455

                    16                     17                     18
                     A                      A                      A
 Frequencies --   205.3835               230.7751               260.7030
 Red. masses --     7.1350                 6.1692                 4.6293
 Frc consts  --     0.1773                 0.1936                 0.1854
 IR Inten    --     0.0765                 1.8057                18.7701
 Raman Activ --     2.5187                 0.9621                 0.4231

                    19                     20                     21
                     A                      A                      A
 Frequencies --   282.9687               291.6150               304.4767
 Red. masses --     4.5695                 4.8310                 4.3118
 Frc consts  --     0.2156                 0.2421                 0.2355
 IR Inten    --     0.4950                 1.1289                 3.2221
 Raman Activ --     0.1586                 0.2951                 0.0645

                    22                     23                     24
                     A                      A                      A
 Frequencies --   315.9088               324.6846               327.3264
 Red. masses --     5.2086                 6.3540                 5.5342
 Frc consts  --     0.3063                 0.3947                 0.3494
 IR Inten    --     6.4240                 8.2468                 1.6515
 Raman Activ --     0.8681                 3.0997                 3.3929

                    25                     26                     27
                     A                      A                      A
 Frequencies --   337.4967               365.9603               389.4049
 Red. masses --     6.5161                 4.5470                 5.3430
 Frc consts  --     0.4373                 0.3588                 0.4774
 IR Inten    --     9.6858                 6.6810                 3.2169
 Raman Activ --     3.5355                 0.1439                 0.2408

                    28                     29                     30
                     A                      A                      A
 Frequencies --   404.5793               422.6822               445.0999
 Red. masses --     5.4616                 5.8323                 4.4899
 Frc consts  --     0.5267                 0.6139                 0.5241
 IR Inten    --    14.7292                13.7864                 3.9675
 Raman Activ --     3.4034                 5.4053                 1.1509

                    31                     32                     33
                     A                      A                      A
 Frequencies --   447.1440               472.2855               497.0092
 Red. masses --     5.5067                 4.3171                 4.2190
 Frc consts  --     0.6487                 0.5673                 0.6140
 IR Inten    --     8.8443                 5.2752                 9.5610
 Raman Activ --     3.0887                 3.0681                 0.1124

                    34                     35                     36
                     A                      A                      A
 Frequencies --   524.1067               532.7856               568.6512
 Red. masses --     3.4754                 3.4867                 3.8912
 Frc consts  --     0.5625                 0.5831                 0.7414
 IR Inten    --     5.6392                11.3830                 3.6356
 Raman Activ --     5.6286                 0.8519                 2.0912

                    37                     38                     39
                     A                      A                      A
 Frequencies --   588.2411               603.8706               616.6464
 Red. masses --     3.5560                 5.2013                 4.3096
 Frc consts  --     0.7250                 1.1175                 0.9655
 IR Inten    --    32.9210                13.2455                 2.6599
 Raman Activ --     0.5967                 0.4658                 0.2855

                    40                     41                     42
                     A                      A                      A
 Frequencies --   632.9155               652.0244               677.0399
 Red. masses --     4.6959                 1.0646                 5.1756
 Frc consts  --     1.1083                 0.2667                 1.3978
 IR Inten    --    35.1716                83.0142                18.9736
 Raman Activ --     1.5844                 2.1599                 1.0119

                    43                     44                     45
                     A                      A                      A
 Frequencies --   699.3941               722.2974               724.6854
 Red. masses --     1.0763                 1.0786                 1.0712
 Frc consts  --     0.3102                 0.3315                 0.3315
 IR Inten    --   106.6749                28.4919               155.8797
 Raman Activ --     1.8339                 1.2130                 1.7837

                    46                     47                     48
                     A                      A                      A
 Frequencies --   826.4723               854.1396               864.2166
 Red. masses --     1.1097                 1.7745                 1.6947
 Frc consts  --     0.4466                 0.7628                 0.7458
 IR Inten    --   105.5636                 4.2993                 2.4877
 Raman Activ --     1.3497                 0.9193                 0.9262

                    49                     50                     51
                     A                      A                      A
 Frequencies --   897.4254               930.0471               961.9209
 Red. masses --     1.1382                 4.9623                 4.7296
 Frc consts  --     0.5401                 2.5290                 2.5784
 IR Inten    --    83.5959               101.7965                32.0370
 Raman Activ --     1.4451                 3.1729                 0.5311

                    52                     53                     54
                     A                      A                      A
 Frequencies --   973.6716               981.9092               986.7754
 Red. masses --     6.0197                 5.0270                 5.6028
 Frc consts  --     3.3624                 2.8556                 3.2144
 IR Inten    --     1.7432               118.0119               244.4167
 Raman Activ --     2.4724                 1.4459                 1.2675

                    55                     56                     57
                     A                      A                      A
 Frequencies --  1005.7297              1012.0051              1027.9512
 Red. masses --     6.1574                 6.8722                 5.8721
 Frc consts  --     3.6696                 4.1468                 3.6559
 IR Inten    --   316.4080                28.9049               211.6931
 Raman Activ --     2.0266                 1.7543                 0.9332

                    58                     59                     60
                     A                      A                      A
 Frequencies --  1029.4679              1054.6717              1060.5096
 Red. masses --     6.6380                 6.1389                 6.2835
 Frc consts  --     4.1449                 4.0232                 4.1637
 IR Inten    --   235.1493               231.7544                32.6159
 Raman Activ --     2.8790                 4.6809                 0.7063

                    61                     62                     63
                     A                      A                      A
 Frequencies --  1067.4133              1071.0583              1079.8728
 Red. masses --     2.9520                 6.2256                 3.6741
 Frc consts  --     1.9817                 4.2078                 2.5243
 IR Inten    --     1.0258                24.8979                18.3960
 Raman Activ --     8.4979                 1.6261                22.0447

                    64                     65                     66
                     A                      A                      A
 Frequencies --  1099.2180              1107.3751              1108.7278
 Red. masses --     3.2054                 3.0186                 2.3022
 Frc consts  --     2.2819                 2.1809                 1.6674
 IR Inten    --    33.0063                23.0914                37.6296
 Raman Activ --     9.2379                 2.4879                 2.1530

                    67                     68                     69
                     A                      A                      A
 Frequencies --  1112.3150              1126.1465              1129.1133
 Red. masses --     2.3109                 2.3374                 3.1110
 Frc consts  --     1.6845                 1.7465                 2.3368
 IR Inten    --     2.6312                78.5424                 7.6716
 Raman Activ --     3.0713                 4.6186                14.0247

                    70                     71                     72
                     A                      A                      A
 Frequencies --  1134.4784              1148.1893              1159.1355
 Red. masses --     2.7240                 2.6119                 1.5377
 Frc consts  --     2.0656                 2.0288                 1.2172
 IR Inten    --    32.8331                15.3580                 8.5633
 Raman Activ --     7.7016                 2.9448                 2.9611

                    73                     74                     75
                     A                      A                      A
 Frequencies --  1164.1351              1173.4262              1181.3985
 Red. masses --     1.7793                 1.5764                 1.4549
 Frc consts  --     1.4207                 1.2789                 1.1964
 IR Inten    --     7.9545                 2.8235                28.7148
 Raman Activ --     2.9669                 2.4735                 2.3467

                    76                     77                     78
                     A                      A                      A
 Frequencies --  1193.8981              1208.8069              1222.5547
 Red. masses --     1.5365                 1.3510                 1.2409
 Frc consts  --     1.2904                 1.1631                 1.0927
 IR Inten    --     4.9786                 3.4232                 3.9313
 Raman Activ --     2.1993                 1.6994                 2.5649

                    79                     80                     81
                     A                      A                      A
 Frequencies --  1227.0511              1251.8193              1262.0184
 Red. masses --     1.2779                 1.1771                 1.3910
 Frc consts  --     1.1337                 1.0868                 1.3053
 IR Inten    --    20.6447                 9.0440                 4.3295
 Raman Activ --     0.9653                 0.9971                 2.5093

                    82                     83                     84
                     A                      A                      A
 Frequencies --  1264.7040              1273.4820              1286.3468
 Red. masses --     1.2106                 1.3910                 1.2948
 Frc consts  --     1.1409                 1.3291                 1.2623
 IR Inten    --     6.1195                11.3566                80.0949
 Raman Activ --     3.5499                 2.3205                 2.3945

                    85                     86                     87
                     A                      A                      A
 Frequencies --  1294.6752              1297.5949              1306.2801
 Red. masses --     1.3175                 1.3305                 1.1635
 Frc consts  --     1.3011                 1.3199                 1.1698
 IR Inten    --    18.4950                 2.0389                26.5066
 Raman Activ --     1.2521                 1.1614                 7.0694

                    88                     89                     90
                     A                      A                      A
 Frequencies --  1310.8969              1313.7990              1321.9394
 Red. masses --     1.2536                 1.2972                 1.3632
 Frc consts  --     1.2693                 1.3193                 1.4036
 IR Inten    --     7.2686                11.9891                25.0717
 Raman Activ --    10.3821                 7.2434                 5.3794

                    91                     92                     93
                     A                      A                      A
 Frequencies --  1336.1798              1342.9366              1345.4972
 Red. masses --     1.2707                 1.2488                 1.1860
 Frc consts  --     1.3367                 1.3270                 1.2650
 IR Inten    --    17.8215                34.4462                35.6552
 Raman Activ --     2.3121                 5.1930                 1.7146

                    94                     95                     96
                     A                      A                      A
 Frequencies --  1353.1478              1363.0121              1368.7400
 Red. masses --     1.2273                 1.4654                 1.4055
 Frc consts  --     1.3240                 1.6040                 1.5514
 IR Inten    --    24.3715                 4.8354                10.9283
 Raman Activ --     1.0844                 8.4277                 4.8065

                    97                     98                     99
                     A                      A                      A
 Frequencies --  1375.9920              1396.0954              1398.8498
 Red. masses --     1.7109                 1.4887                 1.3604
 Frc consts  --     1.9085                 1.7096                 1.5685
 IR Inten    --     8.0315                 4.4775                 2.1613
 Raman Activ --     5.4558                 3.4415                 5.8950

                   100                    101                    102
                     A                      A                      A
 Frequencies --  1413.1869              1446.1255              1471.8900
 Red. masses --     1.5554                 1.3879                 1.0906
 Frc consts  --     1.8302                 1.7101                 1.3921
 IR Inten    --    26.1679                59.9306                 9.1228
 Raman Activ --     0.7193                 1.4497                 5.3255

                   103                    104                    105
                     A                      A                      A
 Frequencies --  1474.8951              1477.3065              1486.6279
 Red. masses --     1.0784                 1.3529                 1.3676
 Frc consts  --     1.3822                 1.7396                 1.7808
 IR Inten    --     6.2702                15.4410                21.8558
 Raman Activ --     5.0774                 0.2836                 0.6337

                   106                    107                    108
                     A                      A                      A
 Frequencies --  1509.6964              1548.4897              3251.3481
 Red. masses --     1.2673                 1.1877                 1.0679
 Frc consts  --     1.7017                 1.6780                 6.6512
 IR Inten    --    47.4684                60.2746               667.6931
 Raman Activ --     0.9325                 1.5370               154.3461

                   109                    110                    111
                     A                      A                      A
 Frequencies --  3256.1046              3260.1268              3267.0391
 Red. masses --     1.0577                 1.0578                 1.0811
 Frc consts  --     6.6069                 6.6240                 6.7986
 IR Inten    --    79.4593                72.3380                 9.6126
 Raman Activ --    97.6784                96.3225               167.5353

                   112                    113                    114
                     A                      A                      A
 Frequencies --  3269.9276              3274.1779              3276.8605
 Red. masses --     1.0834                 1.0827                 1.0826
 Frc consts  --     6.8255                 6.8387                 6.8492
 IR Inten    --     9.4674                 5.6774                 9.2029
 Raman Activ --    15.6964                 4.1499               177.8358

                   115                    116                    117
                     A                      A                      A
 Frequencies --  3281.5255              3286.7568              3287.8925
 Red. masses --     1.0834                 1.0863                 1.0859
 Frc consts  --     6.8735                 6.9140                 6.9161
 IR Inten    --    25.4689                23.9354                13.8565
 Raman Activ --    32.6399                42.9607                13.7357

                   118                    119                    120
                     A                      A                      A
 Frequencies --  3293.8436              3300.2363              3305.0666
 Red. masses --     1.0853                 1.0874                 1.0874
 Frc consts  --     6.9375                 6.9781                 6.9983
 IR Inten    --    10.1730                37.3774                63.1266
 Raman Activ --   109.6328                15.2137                 4.4354

                   121                    122                    123
                     A                      A                      A
 Frequencies --  3312.1167              3314.0409              3317.1170
 Red. masses --     1.1043                 1.0961                 1.0760
 Frc consts  --     7.1374                 7.0931                 6.9756
 IR Inten    --    52.9108               108.8516               530.3786
 Raman Activ --    40.0695               106.6793                69.2358

                   124                    125                    126
                     A                      A                      A
 Frequencies --  3354.7015              3361.8328              3368.1984
 Red. masses --     1.0664                 1.0657                 1.0668
 Frc consts  --     7.0709                 7.0962                 7.1309
 IR Inten    --    43.2148                25.0697                43.6676
 Raman Activ --   132.2118               103.3978               157.6734

                   127                    128                    129
                     A                      A                      A
 Frequencies --  3381.7271              3887.4656              3889.3083
 Red. masses --     1.0673                 1.0678                 1.0673
 Frc consts  --     7.1911                 9.5077                 9.5123
 IR Inten    --    55.6539                80.8855                56.1303
 Raman Activ --   152.2791                77.9024               117.5613

 - Thermochemistry -
 -------------------
 Temperature   298.150 Kelvin.  Pressure   1.00000 Atm.
 Atom     1 has atomic number  8 and mass  15.99491

 Molecular mass:   342.11621 amu.
 Principal axes and moments of inertia in atomic units:
                           1         2         3
     Eigenvalues --  4453.37032********************
           X            0.99997  -0.00828   0.00020
           Y            0.00828   0.99997  -0.00104
           Z           -0.00020   0.00104   1.00000
 This molecule is an asymmetric top.
 Rotational symmetry number  1.
 Warning -- assumption of classical behavior for rotation
           may cause significant error
 Rotational temperatures (Kelvin)      0.01945     0.00705     0.00531
 Rotational constants (GHZ):           0.40525     0.14698     0.11070
    6 imaginary frequencies ignored.
 Zero-point vibrational energy     975303.9 (Joules/Mol)
                                  233.10323 (Kcal/Mol)
 Warning -- explicit consideration of  33 degrees of freedom as
           vibrations may cause significant error
 Vibrational temperatures:     37.14    47.10    78.35   107.08   121.59
          (Kelvin)            166.20   218.06   271.04   275.74   295.50
                              332.03   375.09   407.13   419.57   438.07
                              454.52   467.15   470.95   485.58   526.53
                              560.27   582.10   608.14   640.40   643.34
                              679.51   715.08   754.07   766.56   818.16
                              846.35   868.83   887.22   910.62   938.12
                              974.11  1006.27  1039.22  1042.66  1189.11
                             1228.91  1243.41  1291.19  1338.13  1383.99
                             1400.89  1412.75  1419.75  1447.02  1456.05
                             1478.99  1481.17  1517.44  1525.83  1535.77
                             1541.01  1553.69  1581.53  1593.26  1595.21
                             1600.37  1620.27  1624.54  1632.26  1651.99
                             1667.74  1674.93  1688.30  1699.77  1717.75
                             1739.20  1758.98  1765.45  1801.09  1815.76
                             1819.62  1832.25  1850.76  1862.75  1866.95
                             1879.44  1886.09  1890.26  1901.97  1922.46
                             1932.18  1935.87  1946.88  1961.07  1969.31
                             1979.74  2008.67  2012.63  2033.26  2080.65
                             2117.72  2122.04  2125.51  2138.92  2172.11
                             2227.93  4677.96  4684.80  4690.59  4700.53
                             4704.69  4710.81  4714.67  4721.38  4728.90
                             4730.54  4739.10  4748.30  4755.25  4765.39
                             4768.16  4772.59  4826.66  4836.92  4846.08
                             4865.54  5593.19  5595.84

 Zero-point correction=                           0.371474 (Hartree/Particle)
 Thermal correction to Energy=                    0.390674
 Thermal correction to Enthalpy=                  0.391618
 Thermal correction to Gibbs Free Energy=         0.323486
 Sum of electronic and zero-point Energies=          -1297.615341
 Sum of electronic and thermal Energies=             -1297.596140
 Sum of electronic and thermal Enthalpies=           -1297.595196
 Sum of electronic and thermal Free Energies=        -1297.663329

                     E (Thermal)             CV                S
                      KCal/Mol        Cal/Mol-Kelvin    Cal/Mol-Kelvin
 Total                  245.152             77.728            143.397
 Electronic               0.000              0.000              0.000
 Translational            0.889              2.981             43.384
 Rotational               0.889              2.981             35.143
 Vibrational            243.374             71.766             64.869
 Vibration     1          0.593              1.985              6.127
 Vibration     2          0.594              1.983              5.656
 Vibration     3          0.596              1.976              4.649
 Vibration     4          0.599              1.966              4.033
 Vibration     5          0.601              1.960              3.783
 Vibration     6          0.608              1.937              3.174
 Vibration     7          0.619              1.901              2.653
 Vibration     8          0.633              1.856              2.244
 Vibration     9          0.634              1.851              2.212
 Vibration    10          0.640              1.832              2.084
 Vibration    11          0.652              1.794              1.873
 Vibration    12          0.669              1.745              1.657
 Vibration    13          0.682              1.705              1.516
 Vibration    14          0.687              1.689              1.465
 Vibration    15          0.695              1.665              1.392
 Vibration    16          0.703              1.643              1.331
 Vibration    17          0.709              1.626              1.286
 Vibration    18          0.711              1.621              1.273
 Vibration    19          0.718              1.601              1.224
 Vibration    20          0.739              1.542              1.097
 Vibration    21          0.757              1.493              1.002
 Vibration    22          0.770              1.460              0.946
 Vibration    23          0.785              1.421              0.883
 Vibration    24          0.804              1.372              0.811
 Vibration    25          0.806              1.367              0.804
 Vibration    26          0.829              1.312              0.731
 Vibration    27          0.853              1.257              0.666
 Vibration    28          0.879              1.197              0.601
 Vibration    29          0.888              1.177              0.581
 Vibration    30          0.925              1.099              0.507
 Vibration    31          0.945              1.057              0.470
 Vibration    32          0.962              1.024              0.443
 Vibration    33          0.976              0.997              0.422

 Normal termination of Gaussian 09 at Thu Mar 24 12:17:36 2016.
