 Gaussian 09, Revision B.01,
 Gaussian 09:  EM64L-G09RevB.01 12-Aug-2010

 -------------------------------------------------
 # freq=raman b3lyp/6-31+g(2d,p) geom=connectivity
 -------------------------------------------------

 -----------------
 350 5200/5200.com
 -----------------
 Symbolic Z-matrix:
 Charge =  0 Multiplicity = 1

                         Standard orientation:
 ---------------------------------------------------------------------
 Center     Atomic      Atomic             Coordinates (Angstroms)
 Number     Number       Type             X           Y           Z
 ---------------------------------------------------------------------
      1          8           0        5.065533   -0.268392   -0.580346
      2          6           0        3.766785   -0.003467   -0.031953
      3          6           0        3.109829    1.290667   -0.482136
      4          8           0        3.994449    2.322875   -0.021870
      5          1           0        4.934579    2.011636   -0.160934
      6          6           0        1.757035    1.607426    0.133772
      7          8           0        1.016691    2.538519   -0.670050
      8          1           0        0.196246    2.846129   -0.187764
      9          6           0        3.180475   -2.495976    0.205784
     10          8           0        4.412348   -3.053961   -0.274443
     11          1           0        4.250194   -4.025276   -0.105616
     12          6           0        2.736214   -1.105442   -0.217877
     13          8           0        1.593559   -0.762155    0.580051
     14          6           0        0.862501    0.379028    0.107224
     15          8           0       -0.305037    0.580017    0.917107
     16          6           0       -1.462026    0.263643    0.128735
     17          6           0       -2.012340   -1.114616    0.458401
     18          8           0       -1.005415   -2.125180    0.612794
     19          1           0       -0.205008   -1.722311    1.058290
     20          6           0       -3.253362   -1.552584   -0.301088
     21          8           0       -3.734489   -2.852615    0.070441
     22          1           0       -4.418218   -3.121993   -0.607631
     23          6           0       -2.427476    2.587324    0.044097
     24          8           0       -1.254426    3.211414    0.584551
     25          1           0       -1.594743    4.149957    0.644638
     26          6           0       -2.705930    1.118683    0.316512
     27          8           0       -3.803576    0.815836   -0.555558
     28          6           0       -4.299232   -0.462104   -0.132503
     29          8           0       -5.451872   -0.735739   -0.942474
     30          1           0       -6.177316   -1.019305   -0.381296
     31          1           0        5.671902   -0.495537    0.128401
     32          1           0        2.400492   -3.172385   -0.075281
     33          1           0        3.233493   -2.495014    1.274470
     34          1           0        2.444030   -1.134868   -1.246791
     35          1           0        3.912068    0.090488    1.023966
     36          1           0        3.042323    1.316119   -1.549701
     37          1           0        1.868734    1.973597    1.132942
     38          1           0        0.555267    0.198024   -0.901609
     39          1           0       -3.271482    3.139832    0.400872
     40          1           0       -2.388563    2.709205   -1.018226
     41          1           0       -3.037479    1.016490    1.328704
     42          1           0       -1.185574    0.284609   -0.904723
     43          1           0       -2.379359   -0.989842    1.455711
     44          1           0       -2.996318   -1.593055   -1.338966
     45          1           0       -4.592233   -0.406941    0.895119
 ---------------------------------------------------------------------

 SCF Done:  E(RB3LYP) =  -1297.96884594     A.U. after   14 cycles

 The electronic state is 1-A.
 Alpha  occ. eigenvalues --  -19.19474 -19.19371 -19.19217 -19.18234 -19.17495
 Alpha  occ. eigenvalues --  -19.16903 -19.16802 -19.16320 -19.14318 -19.14126
 Alpha  occ. eigenvalues --  -19.12982 -10.30946 -10.29669 -10.26562 -10.25907
 Alpha  occ. eigenvalues --  -10.25426 -10.25311 -10.25175 -10.24545 -10.24297
 Alpha  occ. eigenvalues --  -10.23947 -10.23821 -10.23724  -1.10190  -1.09505
 Alpha  occ. eigenvalues --   -1.06502  -1.05282  -1.04295  -1.04069  -1.03166
 Alpha  occ. eigenvalues --   -1.02939  -1.01664  -1.00683  -0.99865  -0.82630
 Alpha  occ. eigenvalues --   -0.79825  -0.79693  -0.77965  -0.71722  -0.69865
 Alpha  occ. eigenvalues --   -0.67020  -0.65231  -0.63587  -0.62005  -0.61736
 Alpha  occ. eigenvalues --   -0.60014  -0.56698  -0.56023  -0.55278  -0.54733
 Alpha  occ. eigenvalues --   -0.53874  -0.53692  -0.52824  -0.51799  -0.51364
 Alpha  occ. eigenvalues --   -0.51176  -0.49622  -0.48842  -0.48168  -0.46757
 Alpha  occ. eigenvalues --   -0.45842  -0.45215  -0.44750  -0.44036  -0.43486
 Alpha  occ. eigenvalues --   -0.42667  -0.42470  -0.41440  -0.40229  -0.39898
 Alpha  occ. eigenvalues --   -0.38720  -0.38340  -0.37896  -0.36747  -0.36424
 Alpha  occ. eigenvalues --   -0.35535  -0.34749  -0.34093  -0.33716  -0.33345
 Alpha  occ. eigenvalues --   -0.33049  -0.32039  -0.31462  -0.30694  -0.30251
 Alpha  occ. eigenvalues --   -0.29095  -0.28577  -0.28495  -0.27669  -0.26437
 Alpha  occ. eigenvalues --   -0.25308
 Alpha virt. eigenvalues --   -0.02387  -0.01932  -0.01765  -0.00276   0.00142
 Alpha virt. eigenvalues --    0.01006   0.01790   0.02698   0.02772   0.03581
 Alpha virt. eigenvalues --    0.03918   0.04383   0.04813   0.05379   0.05557

 Mulliken atomic charges:
              1
     1  O   -0.545657
     2  C   -0.353060
     3  C    0.548956
     4  O   -0.571328
     5  H    0.341243
     6  C   -0.157326
     7  O   -0.598873
     8  H    0.430578
     9  C   -0.332913
    10  O   -0.501842
    11  H    0.334867
    12  C    0.437718
    13  O   -0.300650
    14  C    0.408527
    15  O   -0.234431
    16  C    0.032851
    17  C    0.133513
    18  O   -0.566159
    19  H    0.366434
    20  C    0.056140
    21  O   -0.528239
    22  H    0.340479
    23  C   -0.401069
    24  O   -0.540153
    25  H    0.361003
    26  C    0.015456
    27  O   -0.241614
    28  C    0.167255
    29  O   -0.566469
    30  H    0.339376
    31  H    0.348731
    32  H    0.148789
    33  H    0.143876
    34  H    0.106301
    35  H    0.121279
    36  H    0.129374
    37  H    0.138605
    38  H    0.113008
    39  H    0.138806
    40  H    0.164892
    41  H    0.116973
    42  H    0.112644
    43  H    0.094635
    44  H    0.122080
    45  H    0.125394
 Sum of Mulliken atomic charges =   0.00000

 Dipole moment (field-independent basis, Debye):
    X=             -3.3119    Y=             -0.0826    Z=              2.1366  Tot=              3.9422
 Quadrupole moment (field-independent basis, Debye-Ang):
   XX=           -119.4509   YY=           -133.6820   ZZ=           -141.8506
   XY=            -14.1959   XZ=              2.9368   YZ=              6.2618

  Exact polarizability: 231.771  -0.331 194.501   2.112   0.559 143.674
 Approx polarizability: 273.980  -1.630 253.464   3.683   1.575 240.993

 ******    6 imaginary frequencies (negative Signs) ******

                     1                      2                      3
                     A                      A                      A
 Frequencies --  -301.4817              -277.2976              -237.6756
 Red. masses --     1.7290                 1.7378                 1.1807
 Frc consts  --     0.0926                 0.0787                 0.0393
 IR Inten    --     7.3579                 2.3082               115.0656
 Raman Activ --     0.0912                 0.0849                 0.8399

                     4                      5                      6
                     A                      A                      A
 Frequencies --  -211.1789               -83.0488               -51.1201
 Red. masses --     1.1860                 6.8433                 6.3520
 Frc consts  --     0.0312                 0.0278                 0.0098
 IR Inten    --   107.0555                 0.9141                 0.2228
 Raman Activ --     0.8367                 0.0595                 0.1359

                     7                      8                      9
                     A                      A                      A
 Frequencies --    23.6549                44.0775                52.2004
 Red. masses --     6.4702                 6.6789                 6.2200
 Frc consts  --     0.0021                 0.0076                 0.0100
 IR Inten    --     0.6923                 1.8583                 3.7230
 Raman Activ --     0.0409                 0.1081                 0.0228

                    10                     11                     12
                     A                      A                      A
 Frequencies --    86.4864                99.4738               143.3518
 Red. masses --     6.6592                 5.8805                 5.6959
 Frc consts  --     0.0293                 0.0343                 0.0690
 IR Inten    --     1.1682                 1.1281                 0.8751
 Raman Activ --     0.0806                 0.3842                 0.1803

                    13                     14                     15
                     A                      A                      A
 Frequencies --   160.0023               181.3384               200.0223
 Red. masses --     6.0013                 7.2369                 6.3769
 Frc consts  --     0.0905                 0.1402                 0.1503
 IR Inten    --     2.1503                 0.1755                 3.0598
 Raman Activ --     0.4310                 0.3578                 2.0640

                    16                     17                     18
                     A                      A                      A
 Frequencies --   220.8457               240.3935               272.1316
 Red. masses --     5.7719                 6.2077                 4.6047
 Frc consts  --     0.1659                 0.2114                 0.2009
 IR Inten    --     0.3490                 5.6062                20.3614
 Raman Activ --     0.0853                 1.3891                 0.2994

                    19                     20                     21
                     A                      A                      A
 Frequencies --   283.2804               290.2163               299.0625
 Red. masses --     5.4783                 4.6597                 4.9136
 Frc consts  --     0.2590                 0.2312                 0.2589
 IR Inten    --     0.0272                 5.0910                 2.8111
 Raman Activ --     0.1037                 0.0984                 0.1655

                    22                     23                     24
                     A                      A                      A
 Frequencies --   306.4035               318.1412               325.2404
 Red. masses --     4.7646                 6.1791                 6.3891
 Frc consts  --     0.2635                 0.3685                 0.3982
 IR Inten    --     6.4019                 3.4703                 2.4388
 Raman Activ --     0.2912                 1.7899                 4.7491

                    25                     26                     27
                     A                      A                      A
 Frequencies --   346.7009               372.0620               388.4472
 Red. masses --     6.6318                 4.3677                 8.6887
 Frc consts  --     0.4697                 0.3562                 0.7724
 IR Inten    --     7.1396                 1.1300                 2.1451
 Raman Activ --     3.3443                 0.2141                 2.0169

                    28                     29                     30
                     A                      A                      A
 Frequencies --   402.3151               417.4697               432.7485
 Red. masses --     6.8208                 6.2199                 4.7691
 Frc consts  --     0.6505                 0.6387                 0.5262
 IR Inten    --     3.7271                 1.4625                 5.6501
 Raman Activ --     4.6620                 1.3670                 2.2762

                    31                     32                     33
                     A                      A                      A
 Frequencies --   449.3951               481.8599               490.6584
 Red. masses --     3.8984                 4.6929                 4.1019
 Frc consts  --     0.4639                 0.6420                 0.5818
 IR Inten    --    12.5608                 5.7317                21.2088
 Raman Activ --     3.9323                 0.9273                 0.3071

                    34                     35                     36
                     A                      A                      A
 Frequencies --   508.8804               550.6908               564.2098
 Red. masses --     4.1517                 3.0552                 4.5184
 Frc consts  --     0.6334                 0.5459                 0.8475
 IR Inten    --     3.9644                 7.7428                 8.0706
 Raman Activ --     6.8864                 2.7000                 1.6876

                    37                     38                     39
                     A                      A                      A
 Frequencies --   590.4220               596.4796               608.9482
 Red. masses --     3.2602                 4.5011                 6.6274
 Frc consts  --     0.6696                 0.9435                 1.4480
 IR Inten    --    25.4855                18.1592                36.7996
 Raman Activ --     0.8279                 0.3778                 1.0339

                    40                     41                     42
                     A                      A                      A
 Frequencies --   641.0140               665.0903               729.5038
 Red. masses --     4.3596                 5.9040                 1.0955
 Frc consts  --     1.0554                 1.5387                 0.3435
 IR Inten    --    21.4042                19.5063                70.0100
 Raman Activ --     0.4620                 0.6966                 0.7770

                    43                     44                     45
                     A                      A                      A
 Frequencies --   733.0992               740.5981               745.8200
 Red. masses --     1.0820                 1.0920                 1.1081
 Frc consts  --     0.3426                 0.3529                 0.3632
 IR Inten    --   115.9392                75.0852               153.9862
 Raman Activ --     1.7039                 4.4466                 1.8224

                    46                     47                     48
                     A                      A                      A
 Frequencies --   774.9855               854.1026               870.1474
 Red. masses --     1.0597                 1.8178                 1.6615
 Frc consts  --     0.3750                 0.7813                 0.7412
 IR Inten    --    97.8477                 3.9836                19.9126
 Raman Activ --     1.7526                 1.8934                 0.3270

                    49                     50                     51
                     A                      A                      A
 Frequencies --   919.0610               952.2801               961.2370
 Red. masses --     1.1871                 4.5178                 6.5458
 Frc consts  --     0.5908                 2.4138                 3.5635
 IR Inten    --    46.3526                89.1711                26.6806
 Raman Activ --     1.5709                 3.7526                 0.5397

                    52                     53                     54
                     A                      A                      A
 Frequencies --   973.6708               981.3084               987.1783
 Red. masses --     4.1910                 4.8762                 7.2343
 Frc consts  --     2.3409                 2.7666                 4.1537
 IR Inten    --    41.8791               173.0773               536.1701
 Raman Activ --     1.6817                 2.0068                 0.5126

                    55                     56                     57
                     A                      A                      A
 Frequencies --   999.0200              1022.9091              1030.2054
 Red. masses --     6.6485                 7.1531                 6.8694
 Frc consts  --     3.9095                 4.4098                 4.2955
 IR Inten    --    35.4782               227.8457               110.3397
 Raman Activ --     0.6518                 3.4665                 3.1123

                    58                     59                     60
                     A                      A                      A
 Frequencies --  1032.2585              1046.0969              1060.2896
 Red. masses --     5.8294                 8.4639                 5.3088
 Frc consts  --     3.6598                 5.4571                 3.5164
 IR Inten    --   117.6348               127.0857                28.5197
 Raman Activ --     2.2973                 1.1276                 3.1009

                    61                     62                     63
                     A                      A                      A
 Frequencies --  1064.0012              1074.4127              1083.3825
 Red. masses --     3.2082                 3.5503                 3.6340
 Frc consts  --     2.1399                 2.4147                 2.5131
 IR Inten    --    13.0570                82.2265                16.5240
 Raman Activ --     6.0352                 0.4636                 8.8043

                    64                     65                     66
                     A                      A                      A
 Frequencies --  1090.8994              1104.9795              1116.2981
 Red. masses --     4.1275                 2.5928                 2.6221
 Frc consts  --     2.8941                 1.8652                 1.9251
 IR Inten    --    26.9278                67.0996                19.4337
 Raman Activ --    14.2779                 8.7040                 7.6930

                    67                     68                     69
                     A                      A                      A
 Frequencies --  1130.0200              1133.2354              1141.1255
 Red. masses --     2.5070                 3.2481                 3.0508
 Frc consts  --     1.8862                 2.4576                 2.3406
 IR Inten    --    76.7884                34.4670                12.8218
 Raman Activ --     7.2613                 1.0697                 7.4921

                    70                     71                     72
                     A                      A                      A
 Frequencies --  1147.6502              1155.9286              1174.5291
 Red. masses --     2.8180                 1.6671                 1.5322
 Frc consts  --     2.1868                 1.3124                 1.2453
 IR Inten    --    30.1247                21.7786                11.0525
 Raman Activ --     5.2426                 1.6993                 2.2144

                    73                     74                     75
                     A                      A                      A
 Frequencies --  1184.2301              1187.2697              1207.4354
 Red. masses --     1.9175                 1.8812                 1.7570
 Frc consts  --     1.5844                 1.5624                 1.5092
 IR Inten    --    13.4329                15.6912                 1.1426
 Raman Activ --     2.9270                 2.6298                 0.9858

                    76                     77                     78
                     A                      A                      A
 Frequencies --  1210.8804              1224.6229              1230.5943
 Red. masses --     1.6224                 1.3224                 1.5595
 Frc consts  --     1.4016                 1.1685                 1.3915
 IR Inten    --     2.3787                 6.1747                 5.8441
 Raman Activ --     1.3508                 1.8418                 4.8517

                    79                     80                     81
                     A                      A                      A
 Frequencies --  1256.4180              1261.0107              1272.7089
 Red. masses --     1.3234                 1.2456                 1.2503
 Frc consts  --     1.2308                 1.1670                 1.1933
 IR Inten    --     9.4002                13.3963                 5.9643
 Raman Activ --     2.2955                 2.0035                 1.2250

                    82                     83                     84
                     A                      A                      A
 Frequencies --  1274.7734              1299.4330              1303.9416
 Red. masses --     1.2975                 1.4015                 1.3709
 Frc consts  --     1.2423                 1.3942                 1.3733
 IR Inten    --    21.3230                60.1985                17.2598
 Raman Activ --     1.2855                 3.5805                 2.2474

                    85                     86                     87
                     A                      A                      A
 Frequencies --  1311.7544              1316.0948              1319.3003
 Red. masses --     1.3185                 1.2981                 1.2850
 Frc consts  --     1.3367                 1.3247                 1.3178
 IR Inten    --    21.9035                19.6222                 6.1624
 Raman Activ --     5.0947                 0.7831                 2.3779

                    88                     89                     90
                     A                      A                      A
 Frequencies --  1331.2268              1335.5637              1346.8534
 Red. masses --     1.3007                 1.2808                 1.2203
 Frc consts  --     1.3581                 1.3461                 1.3043
 IR Inten    --     1.8889                15.3640                20.1267
 Raman Activ --     8.0633                 4.7450                12.0072

                    91                     92                     93
                     A                      A                      A
 Frequencies --  1358.1964              1361.4837              1366.9735
 Red. masses --     1.1937                 1.2010                 1.2122
 Frc consts  --     1.2974                 1.3116                 1.3346
 IR Inten    --     1.2139                26.5071                19.0103
 Raman Activ --     2.8671                 3.3724                 2.8512

                    94                     95                     96
                     A                      A                      A
 Frequencies --  1381.2656              1388.6618              1398.8803
 Red. masses --     1.3616                 1.5438                 1.2012
 Frc consts  --     1.5305                 1.7541                 1.3849
 IR Inten    --     5.3938                 6.6968                24.7909
 Raman Activ --     3.3615                 4.3677                 1.7044

                    97                     98                     99
                     A                      A                      A
 Frequencies --  1403.1738              1413.1810              1440.1035
 Red. masses --     1.1750                 1.2570                 1.3186
 Frc consts  --     1.3630                 1.4790                 1.6112
 IR Inten    --    20.8926                 5.0498                31.0450
 Raman Activ --     1.5442                 4.5380                 1.7655

                   100                    101                    102
                     A                      A                      A
 Frequencies --  1444.5691              1466.3445              1470.8058
 Red. masses --     1.3186                 1.2472                 1.1039
 Frc consts  --     1.6212                 1.5800                 1.4070
 IR Inten    --    55.7496                20.6140                 9.7222
 Raman Activ --     1.4377                 7.5325                 7.4148

                   103                    104                    105
                     A                      A                      A
 Frequencies --  1472.1902              1476.0105              1479.2221
 Red. masses --     1.2145                 1.2131                 1.2204
 Frc consts  --     1.5509                 1.5571                 1.5733
 IR Inten    --    20.3729                31.2738                 8.7274
 Raman Activ --     4.6276                 2.4156                 4.7510

                   106                    107                    108
                     A                      A                      A
 Frequencies --  1507.3171              1515.3085              3233.9421
 Red. masses --     1.3295                 1.2851                 1.0764
 Frc consts  --     1.7798                 1.7386                 6.6328
 IR Inten    --    22.4687                27.7047               174.7243
 Raman Activ --     0.8187                 0.5308               125.5920

                   109                    110                    111
                     A                      A                      A
 Frequencies --  3236.4713              3254.4971              3260.8753
 Red. masses --     1.0720                 1.0575                 1.0648
 Frc consts  --     6.6161                 6.5994                 6.6712
 IR Inten    --   817.4785                36.0771                29.6323
 Raman Activ --    49.4039                74.4042               115.7082

                   112                    113                    114
                     A                      A                      A
 Frequencies --  3262.8226              3266.6553              3271.3656
 Red. masses --     1.0782                 1.0824                 1.0868
 Frc consts  --     6.7631                 6.8050                 6.8529
 IR Inten    --     2.4062                 0.2823                 0.4799
 Raman Activ --    89.7765                83.4287                14.5604

                   115                    116                    117
                     A                      A                      A
 Frequencies --  3273.8713              3276.5831              3286.4318
 Red. masses --     1.0826                 1.0851                 1.0850
 Frc consts  --     6.8365                 6.8640                 6.9042
 IR Inten    --     1.5102                14.9058                15.0818
 Raman Activ --   176.5663                15.8150                44.8783

                   118                    119                    120
                     A                      A                      A
 Frequencies --  3291.6211              3293.2880              3305.7036
 Red. masses --     1.0859                 1.0862                 1.0944
 Frc consts  --     6.9322                 6.9411                 7.0459
 IR Inten    --     6.6599                71.2434                 5.8105
 Raman Activ --    67.6029                22.2071                26.1995

                   121                    122                    123
                     A                      A                      A
 Frequencies --  3308.1241              3314.2273              3340.7866
 Red. masses --     1.0963                 1.1048                 1.0665
 Frc consts  --     7.0688                 7.1499                 7.0132
 IR Inten    --    75.6231                62.3207               251.0426
 Raman Activ --    14.0642                36.8239               120.8335

                   124                    125                    126
                     A                      A                      A
 Frequencies --  3355.6395              3372.7904              3374.1260
 Red. masses --     1.0656                 1.0664                 1.0662
 Frc consts  --     7.0699                 7.1475                 7.1516
 IR Inten    --    34.7587                54.7110                41.1578
 Raman Activ --   103.8773               121.8322               136.9388

                   127                    128                    129
                     A                      A                      A
 Frequencies --  3379.8339              3889.4112              3893.7870
 Red. masses --     1.0663                 1.0677                 1.0674
 Frc consts  --     7.1768                 9.5163                 9.5347
 IR Inten    --    38.3562                88.5311                82.9415
 Raman Activ --   130.9125                75.6117               104.0194

 - Thermochemistry -
 -------------------
 Temperature   298.150 Kelvin.  Pressure   1.00000 Atm.
 Atom     1 has atomic number  8 and mass  15.99491

 Molecular mass:   342.11621 amu.
 Principal axes and moments of inertia in atomic units:
                           1         2         3
     Eigenvalues --  4369.45999********************
           X            0.99997  -0.00752  -0.00011
           Y            0.00752   0.99997   0.00110
           Z            0.00010  -0.00110   1.00000
 This molecule is an asymmetric top.
 Rotational symmetry number  1.
 Warning -- assumption of classical behavior for rotation
           may cause significant error
 Rotational temperatures (Kelvin)      0.01982     0.00698     0.00537
 Rotational constants (GHZ):           0.41304     0.14545     0.11197
    6 imaginary frequencies ignored.
 Zero-point vibrational energy     980008.3 (Joules/Mol)
                                  234.22762 (Kcal/Mol)
 Warning -- explicit consideration of  33 degrees of freedom as
           vibrations may cause significant error
 Vibrational temperatures:     34.03    63.42    75.10   124.43   143.12
          (Kelvin)            206.25   230.21   260.91   287.79   317.75
                              345.87   391.54   407.58   417.56   430.28
                              440.85   457.73   467.95   498.82   535.31
                              558.89   578.84   600.65   622.63   646.58
                              693.29   705.95   732.16   792.32   811.77
                              849.48   858.20   876.14   922.28   956.92
                             1049.59  1054.76  1065.55  1073.07  1115.03
                             1228.86  1251.95  1322.32  1370.12  1383.00
                             1400.89  1411.88  1420.33  1437.37  1471.74
                             1482.23  1485.19  1505.10  1525.52  1530.86
                             1545.84  1558.74  1569.56  1589.82  1606.10
                             1625.84  1630.47  1641.82  1651.21  1663.12
                             1689.88  1703.84  1708.21  1737.23  1742.18
                             1761.96  1770.55  1807.70  1814.31  1831.14
                             1834.11  1869.59  1876.08  1887.32  1893.56
                             1898.18  1915.34  1921.58  1937.82  1954.14
                             1958.87  1966.77  1987.33  1997.97  2012.67
                             2018.85  2033.25  2071.99  2078.41  2109.74
                             2116.16  2118.15  2123.65  2128.27  2168.69
                             2180.19  4652.92  4656.55  4682.49  4691.67
                             4694.47  4699.98  4706.76  4710.36  4714.27
                             4728.44  4735.90  4738.30  4756.16  4759.65
                             4768.43  4806.64  4828.01  4852.69  4854.61
                             4862.82  5595.99  5602.28

 Zero-point correction=                           0.373265 (Hartree/Particle)
 Thermal correction to Energy=                    0.392230
 Thermal correction to Enthalpy=                  0.393174
 Thermal correction to Gibbs Free Energy=         0.325927
 Sum of electronic and zero-point Energies=          -1297.595580
 Sum of electronic and thermal Energies=             -1297.576616
 Sum of electronic and thermal Enthalpies=           -1297.575672
 Sum of electronic and thermal Free Energies=        -1297.642919

                     E (Thermal)             CV                S
                      KCal/Mol        Cal/Mol-Kelvin    Cal/Mol-Kelvin
 Total                  246.128             77.108            141.534
 Electronic               0.000              0.000              0.000
 Translational            0.889              2.981             43.384
 Rotational               0.889              2.981             35.123
 Vibrational            244.351             71.146             63.026
 Vibration     1          0.593              1.985              6.301
 Vibration     2          0.595              1.980              5.067
 Vibration     3          0.596              1.977              4.732
 Vibration     4          0.601              1.959              3.738
 Vibration     5          0.604              1.949              3.465
 Vibration     6          0.616              1.910              2.759
 Vibration     7          0.622              1.891              2.550
 Vibration     8          0.630              1.865              2.315
 Vibration     9          0.638              1.840              2.133
 Vibration    10          0.648              1.809              1.952
 Vibration    11          0.657              1.779              1.800
 Vibration    12          0.675              1.725              1.583
 Vibration    13          0.682              1.705              1.514
 Vibration    14          0.686              1.692              1.473
 Vibration    15          0.692              1.675              1.422
 Vibration    16          0.697              1.662              1.382
 Vibration    17          0.705              1.639              1.320
 Vibration    18          0.709              1.625              1.284
 Vibration    19          0.725              1.582              1.181
 Vibration    20          0.744              1.530              1.071
 Vibration    21          0.757              1.495              1.006
 Vibration    22          0.768              1.465              0.954
 Vibration    23          0.781              1.432              0.901
 Vibration    24          0.794              1.399              0.850
 Vibration    25          0.808              1.362              0.798
 Vibration    26          0.838              1.290              0.705
 Vibration    27          0.846              1.271              0.682
 Vibration    28          0.864              1.230              0.636
 Vibration    29          0.906              1.138              0.543
 Vibration    30          0.920              1.109              0.515
 Vibration    31          0.948              1.052              0.466
 Vibration    32          0.954              1.039              0.456
 Vibration    33          0.968              1.013              0.435

 Normal termination of Gaussian 09 at Fri Mar 25 20:07:39 2016.
