 Gaussian 09, Revision B.01,
 Gaussian 09:  EM64L-G09RevB.01 12-Aug-2010

 -------------------------------------------------
 # freq=raman b3lyp/6-31+g(2d,p) geom=connectivity
 -------------------------------------------------

 -----------------
 290 7973/7973.com
 -----------------
 Symbolic Z-matrix:
 Charge =  0 Multiplicity = 1

                         Standard orientation:
 ---------------------------------------------------------------------
 Center     Atomic      Atomic             Coordinates (Angstroms)
 Number     Number       Type             X           Y           Z
 ---------------------------------------------------------------------
      1          8           0       -5.025291   -0.398823    0.208066
      2          6           0       -3.694570   -0.068022   -0.216733
      3          6           0       -3.242943    1.311714    0.233016
      4          8           0       -4.136935    2.280293   -0.334943
      5          1           0       -5.022336    1.830144   -0.220459
      6          6           0       -1.763742    1.552130   -0.023822
      7          8           0       -1.253218    2.759892    0.559441
      8          1           0       -0.394347    3.059760    0.143991
      9          6           0       -3.150719   -2.476163   -0.019465
     10          8           0       -4.391252   -3.134403    0.276142
     11          1           0       -4.326990   -4.122386    0.135671
     12          6           0       -2.714718   -1.073034    0.367184
     13          8           0       -1.427505   -0.870304   -0.234463
     14          6           0       -0.921534    0.341623    0.343516
     15          8           0        0.275721    0.481208   -0.435934
     16          6           0        1.599275    0.186425    0.031171
     17          6           0        2.062032   -1.169461   -0.478707
     18          8           0        0.953849   -2.081385   -0.459671
     19          1           0        0.053002   -1.661135   -0.575864
     20          6           0        3.349029   -1.621066    0.191691
     21          8           0        3.913077   -2.829005   -0.338599
     22          1           0        4.840941   -3.082560   -0.063732
     23          6           0        2.373697    2.587104    0.024487
     24          8           0        1.191051    3.314983   -0.337462
     25          1           0        1.574873    4.230777   -0.450364
     26          6           0        2.652658    1.170734   -0.450029
     27          8           0        3.892186    0.862096    0.203842
     28          6           0        4.343076   -0.486032    0.005740
     29          8           0        5.439316   -0.576613    0.926792
     30          1           0       -5.577306   -0.555255   -0.561615
     31          1           0       -2.442710   -3.046130   -0.584053
     32          1           0       -3.858728   -1.906195    0.545123
     33          1           0       -2.656346   -0.973318    1.430927
     34          1           0       -3.648688   -0.117573   -1.284600
     35          1           0       -3.379228    1.351760    1.293545
     36          1           0       -1.664354    1.671663   -1.082469
     37          1           0       -0.726351    0.260171    1.392406
     38          1           0        3.204756    3.182150   -0.291995
     39          1           0        2.396936    2.558753    1.093859
     40          1           0        2.760082    1.134416   -1.514003
     41          1           0        1.596219    0.174422    1.101099
     42          1           0        2.306808   -1.029532   -1.510892
     43          1           0        3.166337   -1.754575    1.237491
     44          1           0        6.262758   -0.646651    0.438286
     45          1           0        4.737434   -0.557938   -0.986335
 ---------------------------------------------------------------------

 SCF Done:  E(RB3LYP) =  -1297.67077143     A.U. after   18 cycles

 The electronic state is 1-A.
 Alpha  occ. eigenvalues --  -19.20185 -19.19403 -19.19396 -19.19082 -19.18245
 Alpha  occ. eigenvalues --  -19.17761 -19.17733 -19.16350 -19.15441 -19.13562
 Alpha  occ. eigenvalues --  -19.12528 -10.31444 -10.30611 -10.29881 -10.26201
 Alpha  occ. eigenvalues --  -10.25714 -10.25595 -10.25285 -10.25242 -10.24719
 Alpha  occ. eigenvalues --  -10.24433 -10.24186 -10.18636  -1.11470  -1.09348
 Alpha  occ. eigenvalues --   -1.07787  -1.06318  -1.06024  -1.04457  -1.03350
 Alpha  occ. eigenvalues --   -1.02561  -1.02412  -1.00331  -0.99261  -0.84503
 Alpha  occ. eigenvalues --   -0.81939  -0.79898  -0.79469  -0.73567  -0.70552
 Alpha  occ. eigenvalues --   -0.67652  -0.65005  -0.64076  -0.63068  -0.61863
 Alpha  occ. eigenvalues --   -0.60869  -0.57614  -0.56710  -0.56290  -0.55773
 Alpha  occ. eigenvalues --   -0.55660  -0.53705  -0.52976  -0.52443  -0.51645
 Alpha  occ. eigenvalues --   -0.51396  -0.50420  -0.49749  -0.49210  -0.47593
 Alpha  occ. eigenvalues --   -0.46629  -0.45730  -0.45140  -0.43857  -0.43221
 Alpha  occ. eigenvalues --   -0.42352  -0.42231  -0.41638  -0.40857  -0.39278
 Alpha  occ. eigenvalues --   -0.38824  -0.38082  -0.37610  -0.37163  -0.36659
 Alpha  occ. eigenvalues --   -0.35679  -0.34983  -0.34578  -0.34399  -0.33149
 Alpha  occ. eigenvalues --   -0.32492  -0.32158  -0.31122  -0.31021  -0.30325
 Alpha  occ. eigenvalues --   -0.30004  -0.28163  -0.28053  -0.27205  -0.25971
 Alpha  occ. eigenvalues --   -0.13490
 Alpha virt. eigenvalues --   -0.06333  -0.02455  -0.02066  -0.01034   0.00053
 Alpha virt. eigenvalues --    0.00798   0.01555   0.02071   0.02717   0.03192
 Alpha virt. eigenvalues --    0.03368   0.03969   0.04336   0.04603   0.05219

 Mulliken atomic charges:
              1
     1  O   -0.594128
     2  C    0.267800
     3  C    0.350449
     4  O   -0.550339
     5  H    0.337045
     6  C   -0.097850
     7  O   -0.594095
     8  H    0.422140
     9  C   -0.553279
    10  O   -0.436490
    11  H    0.331509
    12  C   -0.352890
    13  O   -0.232811
    14  C    0.224262
    15  O   -0.264892
    16  C    0.009338
    17  C    0.305086
    18  O   -0.617964
    19  H    0.415143
    20  C    0.062615
    21  O   -0.544857
    22  H    0.337874
    23  C   -0.328296
    24  O   -0.553088
    25  H    0.357766
    26  C    0.043534
    27  O   -0.217951
    28  C    0.109773
    29  O   -0.513034
    30  H    0.359657
    31  H    0.155897
    32  H    0.421085
    33  H    0.159945
    34  H    0.146585
    35  H    0.124467
    36  H    0.136282
    37  H    0.141748
    38  H    0.138130
    39  H    0.162766
    40  H    0.126596
    41  H    0.115362
    42  H    0.104136
    43  H    0.130429
    44  H    0.330652
    45  H    0.123892
 Sum of Mulliken atomic charges =   0.00000

 Dipole moment (field-independent basis, Debye):
    X=              2.7623    Y=              0.9003    Z=             -1.1215  Tot=              3.1143
 Quadrupole moment (field-independent basis, Debye-Ang):
   XX=           -108.6754   YY=           -140.2922   ZZ=           -141.5460
   XY=             15.8982   XZ=             -2.8839   YZ=             -5.2716

  Exact polarizability: 252.829   9.287 224.103   4.039   3.160 154.103
 Approx polarizability: 301.526  11.154 293.068   3.037   3.018 253.722

 ******   10 imaginary frequencies (negative Signs) ******

                     1                      2                      3
                     A                      A                      A
 Frequencies -- -2511.2565             -1029.7757              -861.4978
 Red. masses --     1.1032                 1.2443                 1.1748
 Frc consts  --     4.0991                 0.7774                 0.5137
 IR Inten    --    66.6403               642.4156                63.5554
 Raman Activ --  1414.3249               680.1681                16.0660

                     4                      5                      6
                     A                      A                      A
 Frequencies --  -568.9211              -283.7063              -205.7496
 Red. masses --     6.5732                 1.6880                 1.2110
 Frc consts  --     1.2535                 0.0800                 0.0302
 IR Inten    --    99.6915                 1.1493                94.1458
 Raman Activ --   101.7551                 0.0121                 1.1492

                     7                      8                      9
                     A                      A                      A
 Frequencies --  -185.6733               -83.5675               -58.5663
 Red. masses --     5.8204                 6.3315                 6.1744
 Frc consts  --     0.1182                 0.0261                 0.0125
 IR Inten    --    36.2202                 6.6272                 0.3164
 Raman Activ --     8.3968                 0.7747                 0.1690

                    10                     11                     12
                     A                      A                      A
 Frequencies --   -39.5372                33.7365                49.4388
 Red. masses --     5.8983                 5.8801                 7.1416
 Frc consts  --     0.0054                 0.0039                 0.0103
 IR Inten    --     2.0237                 1.9047                 0.2774
 Raman Activ --     2.8452                 1.7890                 0.3731

                    13                     14                     15
                     A                      A                      A
 Frequencies --    79.1169                88.3822               129.7401
 Red. masses --     6.5235                 6.1314                 3.6088
 Frc consts  --     0.0241                 0.0282                 0.0358
 IR Inten    --     0.1505                 5.6117                 8.9006
 Raman Activ --     0.0688                 0.2633                 5.9585

                    16                     17                     18
                     A                      A                      A
 Frequencies --   146.0960               179.2041               204.2622
 Red. masses --     4.4149                 5.9887                 5.5568
 Frc consts  --     0.0555                 0.1133                 0.1366
 IR Inten    --    12.1032                 6.7754                10.3156
 Raman Activ --     1.8287                 0.5906                 7.2914

                    19                     20                     21
                     A                      A                      A
 Frequencies --   217.7511               231.6116               260.4574
 Red. masses --     3.0934                 4.0379                 2.2019
 Frc consts  --     0.0864                 0.1276                 0.0880
 IR Inten    --    46.6304                11.1314                 5.7630
 Raman Activ --    10.7867                 2.7927                13.4599

                    22                     23                     24
                     A                      A                      A
 Frequencies --   272.8375               276.6962               291.5204
 Red. masses --     3.5615                 2.4827                 5.2829
 Frc consts  --     0.1562                 0.1120                 0.2645
 IR Inten    --     7.5070                45.8135                 9.0560
 Raman Activ --     0.5164                18.2762                 2.0439

                    25                     26                     27
                     A                      A                      A
 Frequencies --   304.4959               316.9486               323.5346
 Red. masses --     5.1516                 5.1728                 3.6796
 Frc consts  --     0.2814                 0.3062                 0.2269
 IR Inten    --    20.7381                10.7424                 8.9992
 Raman Activ --     2.7065                 3.4635                 5.4681

                    28                     29                     30
                     A                      A                      A
 Frequencies --   332.9993               343.7699               367.8299
 Red. masses --     3.2776                 4.8013                 5.5871
 Frc consts  --     0.2141                 0.3343                 0.4454
 IR Inten    --    22.8055                 4.4673                 3.2345
 Raman Activ --    23.7672                 5.7554                 2.1715

                    31                     32                     33
                     A                      A                      A
 Frequencies --   383.3394               396.5600               410.8104
 Red. masses --     6.2365                 4.3934                 5.4073
 Frc consts  --     0.5400                 0.4071                 0.5377
 IR Inten    --    12.7613                 3.4098                 5.5929
 Raman Activ --     2.7326                 3.0305                 2.0844

                    34                     35                     36
                     A                      A                      A
 Frequencies --   430.2827               440.7635               453.7733
 Red. masses --     3.8501                 5.8637                 4.4258
 Frc consts  --     0.4200                 0.6712                 0.5369
 IR Inten    --     8.1683                 1.7479                 8.0326
 Raman Activ --     6.5189                 1.6738                 2.0199

                    37                     38                     39
                     A                      A                      A
 Frequencies --   487.1568               504.5136               534.1295
 Red. masses --     4.1683                 4.6491                 3.2191
 Frc consts  --     0.5828                 0.6972                 0.5411
 IR Inten    --    12.4389                 7.4895                24.8479
 Raman Activ --     1.5268                 0.6894                11.4497

                    40                     41                     42
                     A                      A                      A
 Frequencies --   560.8769               585.5403               586.3245
 Red. masses --     3.5729                 6.0076                 2.8963
 Frc consts  --     0.6622                 1.2136                 0.5866
 IR Inten    --    21.0839                14.9317                35.1105
 Raman Activ --     2.0823                 5.8742                 4.4740

                    43                     44                     45
                     A                      A                      A
 Frequencies --   608.5623               617.8741               636.9005
 Red. masses --     4.1858                 4.8467                 1.0979
 Frc consts  --     0.9134                 1.0902                 0.2624
 IR Inten    --     9.4128                32.2692                80.7804
 Raman Activ --     2.8781                20.5233                 2.6986

                    46                     47                     48
                     A                      A                      A
 Frequencies --   686.5821               712.2852               712.5911
 Red. masses --     4.3485                 1.1050                 1.1401
 Frc consts  --     1.2077                 0.3303                 0.3411
 IR Inten    --    17.1481               170.6679                35.5618
 Raman Activ --    12.4151                 2.1917                 3.8013

                    49                     50                     51
                     A                      A                      A
 Frequencies --   770.1075               817.0215               827.0186
 Red. masses --     1.0772                 1.1346                 3.9545
 Frc consts  --     0.3764                 0.4462                 1.5936
 IR Inten    --    76.6348                58.4686                86.5988
 Raman Activ --     2.1640                 7.3703               366.2096

                    52                     53                     54
                     A                      A                      A
 Frequencies --   857.7479               907.5357               945.8156
 Red. masses --     1.6186                 5.4480                 6.3881
 Frc consts  --     0.7016                 2.6437                 3.3669
 IR Inten    --     3.9760               123.6466                99.0405
 Raman Activ --     5.8670                19.5431                 2.4372

                    55                     56                     57
                     A                      A                      A
 Frequencies --   958.9325               964.7304               973.3386
 Red. masses --     5.2538                 5.7709                 6.0127
 Frc consts  --     2.8464                 3.1645                 3.3562
 IR Inten    --    30.8508               345.3806               157.6394
 Raman Activ --     3.3872                28.2378                 4.9002

                    58                     59                     60
                     A                      A                      A
 Frequencies --   996.8973              1004.6539              1019.7849
 Red. masses --     5.4902                 4.3859                 6.1243
 Frc consts  --     3.2147                 2.6082                 3.7525
 IR Inten    --    32.5597               120.3255                99.9553
 Raman Activ --    23.4948                 7.3170                 4.9192

                    61                     62                     63
                     A                      A                      A
 Frequencies --  1034.3462              1046.6781              1054.1266
 Red. masses --     2.8772                 4.4058                 5.0448
 Frc consts  --     1.8137                 2.8438                 3.3028
 IR Inten    --    17.1065                86.4670               201.1744
 Raman Activ --    56.5162                45.0912                16.2324

                    64                     65                     66
                     A                      A                      A
 Frequencies --  1063.6087              1075.3679              1081.3837
 Red. masses --     5.6990                 3.7403                 4.6045
 Frc consts  --     3.7985                 2.5484                 3.1725
 IR Inten    --    35.2120                14.8416                30.3077
 Raman Activ --     8.5159                31.7891                32.3956

                    67                     68                     69
                     A                      A                      A
 Frequencies --  1091.9674              1108.6433              1109.2941
 Red. masses --     2.3094                 2.4019                 2.3537
 Frc consts  --     1.6224                 1.7394                 1.7065
 IR Inten    --    10.0069               149.9873                25.3454
 Raman Activ --    13.7086                 4.1433                 7.4631

                    70                     71                     72
                     A                      A                      A
 Frequencies --  1114.8174              1121.1194              1131.5206
 Red. masses --     1.6344                 2.2529                 2.7598
 Frc consts  --     1.1968                 1.6684                 2.0819
 IR Inten    --    48.6480                13.6022                81.6686
 Raman Activ --     3.0940                22.0794                 3.8089

                    73                     74                     75
                     A                      A                      A
 Frequencies --  1148.8969              1157.7093              1165.1394
 Red. masses --     2.6575                 2.1270                 1.6704
 Frc consts  --     2.0667                 1.6797                 1.3360
 IR Inten    --    25.0013                46.5285                 6.2070
 Raman Activ --     5.7486                14.2717               200.7826

                    76                     77                     78
                     A                      A                      A
 Frequencies --  1166.4741              1170.7952              1179.4649
 Red. masses --     1.7478                 1.2898                 1.6110
 Frc consts  --     1.4011                 1.0416                 1.3204
 IR Inten    --    28.2295                65.1172                 8.1057
 Raman Activ --     1.5052               103.3488               160.4320

                    79                     80                     81
                     A                      A                      A
 Frequencies --  1206.2894              1213.9427              1222.0557
 Red. masses --     1.4983                 1.4466                 1.1850
 Frc consts  --     1.2846                 1.2560                 1.0427
 IR Inten    --    46.5591                 1.0519                 8.8020
 Raman Activ --    76.8198                14.3870                61.8231

                    82                     83                     84
                     A                      A                      A
 Frequencies --  1228.3697              1248.9398              1255.3737
 Red. masses --     1.3175                 1.2754                 1.2318
 Frc consts  --     1.1712                 1.1722                 1.1438
 IR Inten    --    12.1672                 0.9446                58.8546
 Raman Activ --    23.7906                 5.7926                 2.0805

                    85                     86                     87
                     A                      A                      A
 Frequencies --  1262.4005              1272.1012              1282.1893
 Red. masses --     1.2983                 1.4144                 1.3267
 Frc consts  --     1.2191                 1.3485                 1.2850
 IR Inten    --    17.3824                 5.2185                16.9156
 Raman Activ --    67.6495                 2.9204                20.7260

                    88                     89                     90
                     A                      A                      A
 Frequencies --  1288.1210              1299.0476              1302.3428
 Red. masses --     1.3132                 1.2616                 1.3281
 Frc consts  --     1.2838                 1.2544                 1.3272
 IR Inten    --    37.4071                 9.3209                16.9964
 Raman Activ --     5.7324                 4.3258                 7.8108

                    91                     92                     93
                     A                      A                      A
 Frequencies --  1314.5082              1322.6082              1331.0643
 Red. masses --     1.3259                 1.3023                 1.3045
 Frc consts  --     1.3499                 1.3422                 1.3617
 IR Inten    --     4.0788                22.9836                 4.4671
 Raman Activ --     2.2211                 3.0996                11.4837

                    94                     95                     96
                     A                      A                      A
 Frequencies --  1340.3801              1350.5213              1355.6015
 Red. masses --     1.2680                 1.1803                 1.4646
 Frc consts  --     1.3422                 1.2684                 1.5858
 IR Inten    --     2.3953                37.8717                10.4676
 Raman Activ --     6.3916                 2.5634                30.4193

                    97                     98                     99
                     A                      A                      A
 Frequencies --  1370.8762              1375.1661              1384.1407
 Red. masses --     1.2866                 1.3387                 1.3421
 Frc consts  --     1.4246                 1.4916                 1.5149
 IR Inten    --    10.5016                34.5976                 4.7262
 Raman Activ --     3.2901                 2.4926                 7.5537

                   100                    101                    102
                     A                      A                      A
 Frequencies --  1393.8479              1409.8158              1434.4288
 Red. masses --     1.5121                 1.2384                 1.4035
 Frc consts  --     1.7309                 1.4502                 1.7015
 IR Inten    --    17.9135                18.6161                27.7034
 Raman Activ --     4.7404                 1.0204                 2.1012

                   103                    104                    105
                     A                      A                      A
 Frequencies --  1444.9440              1452.4157              1467.3584
 Red. masses --     1.2929                 1.7887                 1.0709
 Frc consts  --     1.5904                 2.2231                 1.3585
 IR Inten    --    22.2192                78.4244                 3.9625
 Raman Activ --     1.2018                39.4609                 4.9883

                   106                    107                    108
                     A                      A                      A
 Frequencies --  1489.4098              1517.1369              2913.9744
 Red. masses --     1.3407                 1.2418                 1.0407
 Frc consts  --     1.7523                 1.6840                 5.2066
 IR Inten    --    67.9835                47.6938               111.7682
 Raman Activ --     4.3928                 1.2657              2288.5724

                   109                    110                    111
                     A                      A                      A
 Frequencies --  3167.4458              3230.8366              3247.4278
 Red. masses --     1.0697                 1.0790                 1.0698
 Frc consts  --     6.3232                 6.6359                 6.6473
 IR Inten    --   172.3371                49.7294               371.0373
 Raman Activ --  4844.2929               353.9187               166.2901

                   112                    113                    114
                     A                      A                      A
 Frequencies --  3253.7986              3262.6939              3266.6626
 Red. masses --     1.0773                 1.0626                 1.0796
 Frc consts  --     6.7201                 6.6647                 6.7876
 IR Inten    --   422.8903                71.1240                23.4849
 Raman Activ --    22.6750               285.0280                76.3917

                   115                    116                    117
                     A                      A                      A
 Frequencies --  3273.3140              3279.7961              3283.6021
 Red. masses --     1.0839                 1.0831                 1.0808
 Frc consts  --     6.8425                 6.8645                 6.8658
 IR Inten    --    23.8251                19.2123               142.9698
 Raman Activ --    71.5019               147.3900                32.7901

                   118                    119                    120
                     A                      A                      A
 Frequencies --  3286.5142              3288.4945              3297.4815
 Red. masses --     1.0815                 1.0780                 1.0871
 Frc consts  --     6.8824                 6.8685                 6.9646
 IR Inten    --   216.7523               602.2382                54.1673
 Raman Activ --    33.5352                54.7826                10.3984

                   121                    122                    123
                     A                      A                      A
 Frequencies --  3298.5039              3306.4270              3315.0743
 Red. masses --     1.0863                 1.0863                 1.1032
 Frc consts  --     6.9636                 6.9973                 7.1434
 IR Inten    --    48.9146                77.1350                68.1304
 Raman Activ --    39.9711                30.1287                24.1546

                   124                    125                    126
                     A                      A                      A
 Frequencies --  3359.3182              3365.3468              3382.5094
 Red. masses --     1.0654                 1.0675                 1.0673
 Frc consts  --     7.0837                 7.1232                 7.1947
 IR Inten    --    31.6469                52.0533                46.7507
 Raman Activ --    82.4038               190.7767               157.3625

                   127                    128                    129
                     A                      A                      A
 Frequencies --  3388.6432              3889.0162              3891.8975
 Red. masses --     1.1470                 1.0676                 1.0674
 Frc consts  --     7.7598                 9.5134                 9.5255
 IR Inten    --    71.0481                77.0115                88.2879
 Raman Activ --    53.4688               115.1626               180.6163

 - Thermochemistry -
 -------------------
 Temperature   298.150 Kelvin.  Pressure   1.00000 Atm.
 Atom     1 has atomic number  8 and mass  15.99491

 Molecular mass:   342.11621 amu.
 Principal axes and moments of inertia in atomic units:
                           1         2         3
     Eigenvalues --  4368.71236********************
           X            0.99997   0.00762  -0.00090
           Y           -0.00762   0.99997  -0.00107
           Z            0.00089   0.00108   1.00000
 This molecule is an asymmetric top.
 Rotational symmetry number  1.
 Warning -- assumption of classical behavior for rotation
           may cause significant error
 Rotational temperatures (Kelvin)      0.01983     0.00691     0.00527
 Rotational constants (GHZ):           0.41311     0.14403     0.10976
   10 imaginary frequencies ignored.
 Zero-point vibrational energy     941152.5 (Joules/Mol)
                                  224.94084 (Kcal/Mol)
 Warning -- explicit consideration of  34 degrees of freedom as
           vibrations may cause significant error
 Vibrational temperatures:     48.54    71.13   113.83   127.16   186.67
          (Kelvin)            210.20   257.83   293.89   313.29   333.24
                              374.74   392.55   398.10   419.43   438.10
                              456.02   465.49   479.11   494.61   529.22
                              551.54   570.56   591.06   619.08   634.16
                              652.88   700.91   725.88   768.49   806.98
                              842.46   843.59   875.58   888.98   916.36
                              987.84  1024.82  1025.26  1108.01  1175.51
                             1189.89  1234.11  1305.74  1360.82  1379.69
                             1388.03  1400.42  1434.31  1445.47  1467.24
                             1488.19  1505.93  1516.65  1530.29  1547.21
                             1555.87  1571.10  1595.09  1596.02  1603.97
                             1613.04  1628.00  1653.00  1665.68  1676.37
                             1678.29  1684.51  1696.98  1735.58  1746.59
                             1758.26  1767.35  1796.94  1806.20  1816.31
                             1830.27  1844.78  1853.32  1869.04  1873.78
                             1891.28  1902.94  1915.10  1928.51  1943.10
                             1950.41  1972.38  1978.55  1991.47  2005.43
                             2028.41  2063.82  2078.95  2089.70  2111.20
                             2142.93  2182.82  4192.55  4557.24  4648.45
                             4672.32  4681.48  4694.28  4699.99  4709.56
                             4718.89  4724.37  4728.56  4731.40  4744.33
                             4745.81  4757.20  4769.65  4833.30  4841.98
                             4866.67  4875.50  5595.42  5599.57

 Zero-point correction=                           0.358466 (Hartree/Particle)
 Thermal correction to Energy=                    0.377223
 Thermal correction to Enthalpy=                  0.378167
 Thermal correction to Gibbs Free Energy=         0.312277
 Sum of electronic and zero-point Energies=          -1297.312305
 Sum of electronic and thermal Energies=             -1297.293548
 Sum of electronic and thermal Enthalpies=           -1297.292604
 Sum of electronic and thermal Free Energies=        -1297.358495

                     E (Thermal)             CV                S
                      KCal/Mol        Cal/Mol-Kelvin    Cal/Mol-Kelvin
 Total                  236.711             77.037            138.678
 Electronic               0.000              0.000              0.000
 Translational            0.889              2.981             43.384
 Rotational               0.889              2.981             35.153
 Vibrational            234.934             71.075             60.141
 Vibration     1          0.594              1.983              5.597
 Vibration     2          0.595              1.978              4.840
 Vibration     3          0.600              1.963              3.913
 Vibration     4          0.601              1.957              3.696
 Vibration     5          0.612              1.924              2.950
 Vibration     6          0.617              1.907              2.722
 Vibration     7          0.629              1.868              2.337
 Vibration     8          0.640              1.834              2.094
 Vibration     9          0.646              1.814              1.978
 Vibration    10          0.653              1.793              1.866
 Vibration    11          0.669              1.745              1.659
 Vibration    12          0.676              1.723              1.578
 Vibration    13          0.678              1.717              1.554
 Vibration    14          0.687              1.690              1.465
 Vibration    15          0.695              1.665              1.392
 Vibration    16          0.704              1.641              1.326
 Vibration    17          0.708              1.628              1.292
 Vibration    18          0.715              1.610              1.245
 Vibration    19          0.723              1.588              1.195
 Vibration    20          0.740              1.538              1.089
 Vibration    21          0.753              1.506              1.026
 Vibration    22          0.763              1.478              0.975
 Vibration    23          0.775              1.447              0.924
 Vibration    24          0.791              1.404              0.858
 Vibration    25          0.801              1.381              0.824
 Vibration    26          0.812              1.353              0.784
 Vibration    27          0.843              1.279              0.691
 Vibration    28          0.860              1.240              0.647
 Vibration    29          0.889              1.175              0.578
 Vibration    30          0.917              1.116              0.522
 Vibration    31          0.943              1.063              0.475
 Vibration    32          0.943              1.061              0.474
 Vibration    33          0.967              1.014              0.435
 Vibration    34          0.978              0.994              0.420

 Normal termination of Gaussian 09 at Mon Mar 21 22:58:20 2016.
