 Gaussian 09, Revision B.01,
 Gaussian 09:  EM64L-G09RevB.01 12-Aug-2010

 -------------------------------------------------
 # freq=raman b3lyp/6-31+g(2d,p) geom=connectivity
 -------------------------------------------------

 -----------------
 400 8690/8690.com
 -----------------
 Symbolic Z-matrix:
 Charge =  0 Multiplicity = 1

                         Standard orientation:
 ---------------------------------------------------------------------
 Center     Atomic      Atomic             Coordinates (Angstroms)
 Number     Number       Type             X           Y           Z
 ---------------------------------------------------------------------
      1          8           0        4.935963   -0.584142   -0.489934
      2          6           0        3.751316   -0.203458    0.224408
      3          6           0        3.320225    1.157993   -0.297795
      4          8           0        4.321446    2.185266   -0.276016
      5          1           0        5.186705    1.690554   -0.350507
      6          6           0        1.961961    1.609843    0.212746
      7          8           0        1.510279    2.958343    0.020007
      8          1           0        0.521700    3.086342    0.088228
      9          6           0        2.743637   -2.645859    0.118877
     10          8           0        3.990262   -3.258334   -0.240447
     11          1           0        3.888339   -4.248755   -0.149357
     12          6           0        2.597118   -1.145584   -0.076959
     13          8           0        1.367053   -0.706245    0.516856
     14          6           0        0.911391    0.539230   -0.031969
     15          8           0       -0.324070    0.661798    0.687143
     16          6           0       -1.530136    0.228725    0.039758
     17          6           0       -2.046076   -1.146690    0.429839
     18          8           0       -1.037204   -2.154456    0.267021
     19          1           0       -0.243870   -1.567823    0.430327
     20          6           0       -3.282418   -1.567557   -0.347467
     21          8           0       -3.680673   -2.890473    0.042982
     22          1           0       -4.507914   -3.142543   -0.459228
     23          6           0       -2.371976    2.658562   -0.158249
     24          8           0       -1.129792    3.354549    0.021772
     25          1           0       -1.267433    4.339942    0.118702
     26          6           0       -2.609365    1.249930    0.361243
     27          8           0       -3.865365    0.860266   -0.214000
     28          6           0       -4.278224   -0.488907    0.046405
     29          8           0       -5.487923   -0.494364   -0.725243
     30          1           0       -6.241503   -0.390511   -0.139639
     31          1           0       -3.131686    3.274838    0.275276
     32          1           0       -2.554233    2.628954   -1.212197
     33          1           0       -2.722917    1.296453    1.424184
     34          1           0       -1.363687    0.236025   -1.017191
     35          1           0       -2.309070   -1.112730    1.466459
     36          1           0       -3.090177   -1.530422   -1.399400
     37          1           0       -4.519253   -0.591650    1.083830
     38          1           0        5.654310   -0.721637    0.131897
     39          1           0        1.972976   -3.123116   -0.449637
     40          1           0        2.566124   -2.856003    1.152913
     41          1           0        2.442965   -1.034784   -1.129983
     42          1           0        3.940535   -0.161325    1.276701
     43          1           0        3.156300    0.987638   -1.341351
     44          1           0        2.094787    1.571073    1.273761
     45          1           0        0.722500    0.434456   -1.079940
 ---------------------------------------------------------------------

 SCF Done:  E(RB3LYP) =  -1297.96200616     A.U. after   13 cycles

 The electronic state is 1-A.
 Alpha  occ. eigenvalues --  -19.18894 -19.18675 -19.18416 -19.17850 -19.17306
 Alpha  occ. eigenvalues --  -19.17218 -19.16868 -19.16052 -19.15145 -19.14072
 Alpha  occ. eigenvalues --  -19.12878 -10.31014 -10.30440 -10.26145 -10.26107
 Alpha  occ. eigenvalues --  -10.25709 -10.25505 -10.25485 -10.25397 -10.24460
 Alpha  occ. eigenvalues --  -10.24300 -10.24235 -10.24024  -1.10616  -1.09206
 Alpha  occ. eigenvalues --   -1.05633  -1.05406  -1.04112  -1.03606  -1.02529
 Alpha  occ. eigenvalues --   -1.02280  -1.01704  -1.01090  -0.99503  -0.82328
 Alpha  occ. eigenvalues --   -0.80786  -0.80143  -0.78540  -0.72324  -0.70333
 Alpha  occ. eigenvalues --   -0.67393  -0.64727  -0.63320  -0.62379  -0.61778
 Alpha  occ. eigenvalues --   -0.60625  -0.56308  -0.56085  -0.55443  -0.54951
 Alpha  occ. eigenvalues --   -0.53802  -0.53463  -0.53103  -0.52013  -0.51308
 Alpha  occ. eigenvalues --   -0.50008  -0.49717  -0.49418  -0.48865  -0.46829
 Alpha  occ. eigenvalues --   -0.46548  -0.45541  -0.44473  -0.44043  -0.43265
 Alpha  occ. eigenvalues --   -0.42388  -0.41398  -0.40978  -0.39774  -0.38853
 Alpha  occ. eigenvalues --   -0.38648  -0.38125  -0.37498  -0.36616  -0.36020
 Alpha  occ. eigenvalues --   -0.35759  -0.35277  -0.34856  -0.34591  -0.32931
 Alpha  occ. eigenvalues --   -0.32418  -0.31520  -0.30892  -0.30559  -0.30029
 Alpha  occ. eigenvalues --   -0.29259  -0.28781  -0.28398  -0.27236  -0.26840
 Alpha  occ. eigenvalues --   -0.25278
 Alpha virt. eigenvalues --   -0.02230  -0.01849  -0.01596  -0.00375  -0.00041
 Alpha virt. eigenvalues --    0.00943   0.02079   0.02179   0.02915   0.03062
 Alpha virt. eigenvalues --    0.03965   0.04264   0.04691   0.05124   0.05779

 Mulliken atomic charges:
              1
     1  O   -0.542160
     2  C    0.045371
     3  C    0.252491
     4  O   -0.553113
     5  H    0.339979
     6  C   -0.274078
     7  O   -0.623743
     8  H    0.435110
     9  C   -0.197563
    10  O   -0.511066
    11  H    0.343496
    12  C   -0.018480
    13  O   -0.256856
    14  C    0.347220
    15  O   -0.216052
    16  C    0.306507
    17  C    0.157506
    18  O   -0.564856
    19  H    0.399128
    20  C    0.011067
    21  O   -0.524085
    22  H    0.337622
    23  C   -0.267402
    24  O   -0.575611
    25  H    0.365292
    26  C   -0.104868
    27  O   -0.209859
    28  C    0.188354
    29  O   -0.516031
    30  H    0.326862
    31  H    0.144228
    32  H    0.158583
    33  H    0.119104
    34  H    0.108785
    35  H    0.116570
    36  H    0.129739
    37  H    0.121821
    38  H    0.342441
    39  H    0.157330
    40  H    0.142867
    41  H    0.104709
    42  H    0.121946
    43  H    0.102705
    44  H    0.110674
    45  H    0.118316
 Sum of Mulliken atomic charges =   0.00000

 Dipole moment (field-independent basis, Debye):
    X=             -2.9122    Y=             -0.4237    Z=              1.5933  Tot=              3.3465
 Quadrupole moment (field-independent basis, Debye-Ang):
   XX=           -118.0414   YY=           -136.7121   ZZ=           -139.4823
   XY=            -19.4675   XZ=              1.6515   YZ=              2.7498

  Exact polarizability: 233.571   1.870 200.602   0.742   0.162 142.839
 Approx polarizability: 274.980   1.128 262.386   1.179   0.927 238.325

 ******    7 imaginary frequencies (negative Signs) ******

                     1                      2                      3
                     A                      A                      A
 Frequencies --  -296.3294              -285.1017              -225.6122
 Red. masses --     1.7538                 1.7830                 1.1434
 Frc consts  --     0.0907                 0.0854                 0.0343
 IR Inten    --     1.4103                 6.5627                28.8746
 Raman Activ --     0.0515                 0.1495                 1.6360

                     4                      5                      6
                     A                      A                      A
 Frequencies --  -224.3471               -82.9169               -72.3784
 Red. masses --     1.2068                 7.6893                 6.0471
 Frc consts  --     0.0358                 0.0311                 0.0187
 IR Inten    --   154.3684                 2.3635                 0.8853
 Raman Activ --     0.2801                 0.0359                 0.0343

                     7                      8                      9
                     A                      A                      A
 Frequencies --   -49.8606                30.4186                64.3179
 Red. masses --     6.6429                 6.5930                 6.7414
 Frc consts  --     0.0097                 0.0036                 0.0164
 IR Inten    --     0.3026                 1.0466                 1.4148
 Raman Activ --     0.0386                 0.0437                 0.1322

                    10                     11                     12
                     A                      A                      A
 Frequencies --    74.2852                82.7515               110.2790
 Red. masses --     6.4353                 5.7852                 6.3319
 Frc consts  --     0.0209                 0.0233                 0.0454
 IR Inten    --     0.9895                 3.6597                 0.3548
 Raman Activ --     0.1193                 0.0993                 0.0498

                    13                     14                     15
                     A                      A                      A
 Frequencies --   154.7808               166.9243               189.5538
 Red. masses --     5.6354                 6.1016                 7.9903
 Frc consts  --     0.0795                 0.1002                 0.1692
 IR Inten    --     4.4183                 0.8169                 0.6238
 Raman Activ --     0.2224                 0.7022                 0.9246

                    16                     17                     18
                     A                      A                      A
 Frequencies --   207.5954               232.9666               259.1698
 Red. masses --     7.0310                 5.8720                 4.2495
 Frc consts  --     0.1785                 0.1878                 0.1682
 IR Inten    --     0.1586                 0.8530                 7.3156
 Raman Activ --     2.1978                 0.3085                 0.2006

                    19                     20                     21
                     A                      A                      A
 Frequencies --   265.9051               278.2618               303.9074
 Red. masses --     4.5033                 5.2664                 5.7058
 Frc consts  --     0.1876                 0.2403                 0.3105
 IR Inten    --     7.4282                 2.7848                 3.3308
 Raman Activ --     0.3442                 0.2393                 1.6576

                    22                     23                     24
                     A                      A                      A
 Frequencies --   308.4852               312.6650               316.0708
 Red. masses --     5.1795                 5.5460                 5.8886
 Frc consts  --     0.2904                 0.3194                 0.3466
 IR Inten    --     2.7805                 2.7231                 0.4799
 Raman Activ --     0.9724                 1.6049                 2.1427

                    25                     26                     27
                     A                      A                      A
 Frequencies --   334.5530               357.6344               371.0003
 Red. masses --     6.6639                 4.2856                 7.2214
 Frc consts  --     0.4395                 0.3230                 0.5856
 IR Inten    --    11.7946                 4.1125                 3.2680
 Raman Activ --     3.8172                 0.2311                 3.8704

                    28                     29                     30
                     A                      A                      A
 Frequencies --   398.2057               416.4053               419.1749
 Red. masses --     4.4851                 4.9219                 6.0808
 Frc consts  --     0.4190                 0.5028                 0.6295
 IR Inten    --    21.7944                11.1715                 0.9766
 Raman Activ --     0.8804                 8.1632                 1.0265

                    31                     32                     33
                     A                      A                      A
 Frequencies --   443.0506               473.3227               478.7117
 Red. masses --     5.2686                 4.7480                 4.3925
 Frc consts  --     0.6093                 0.6267                 0.5931
 IR Inten    --     3.3584                12.7729                 7.9376
 Raman Activ --     2.0724                 5.9555                 1.2248

                    34                     35                     36
                     A                      A                      A
 Frequencies --   503.1030               506.8539               563.0364
 Red. masses --     3.5346                 3.7335                 4.2337
 Frc consts  --     0.5271                 0.5651                 0.7908
 IR Inten    --     8.6194                 4.1158                16.2514
 Raman Activ --     1.4305                 3.6459                 1.5483

                    37                     38                     39
                     A                      A                      A
 Frequencies --   575.4182               590.2344               607.9224
 Red. masses --     3.2448                 3.6547                 3.2126
 Frc consts  --     0.6330                 0.7502                 0.6995
 IR Inten    --    18.9557                24.1424                 3.7168
 Raman Activ --     0.7413                 0.1827                 0.4173

                    40                     41                     42
                     A                      A                      A
 Frequencies --   630.8206               645.9243               685.0028
 Red. masses --     1.2066                 4.8206                 1.2361
 Frc consts  --     0.2829                 1.1850                 0.3417
 IR Inten    --    34.3613                28.1680               101.3371
 Raman Activ --     0.9262                 1.5712                 1.1262

                    43                     44                     45
                     A                      A                      A
 Frequencies --   707.0326               708.2224               719.4508
 Red. masses --     1.1044                 3.1314                 1.1221
 Frc consts  --     0.3253                 0.9254                 0.3422
 IR Inten    --    56.5553                85.1177                69.4961
 Raman Activ --     2.2760                 0.7849                 1.4340

                    46                     47                     48
                     A                      A                      A
 Frequencies --   722.5212               820.5768               854.4525
 Red. masses --     1.0772                 1.1104                 1.7226
 Frc consts  --     0.3313                 0.4405                 0.7410
 IR Inten    --   112.8199                51.6282                 3.5564
 Raman Activ --     2.1362                 0.6986                 1.0511

                    49                     50                     51
                     A                      A                      A
 Frequencies --   864.3811               921.0817               942.2875
 Red. masses --     1.8764                 6.4120                 7.1024
 Frc consts  --     0.8260                 3.2051                 3.7155
 IR Inten    --     5.8263               101.0228               126.7167
 Raman Activ --     1.9589                 1.9661                 0.4478

                    52                     53                     54
                     A                      A                      A
 Frequencies --   969.1364               971.8411               977.5891
 Red. masses --     7.5395                 5.8879                 4.1028
 Frc consts  --     4.1722                 3.2764                 2.3101
 IR Inten    --     8.0995               240.1312                59.6946
 Raman Activ --     3.4382                 1.1639                 0.4471

                    55                     56                     57
                     A                      A                      A
 Frequencies --   991.0364              1000.2004              1022.1119
 Red. masses --     6.6432                 5.9120                 6.4205
 Frc consts  --     3.8442                 3.4847                 3.9520
 IR Inten    --   197.1097                57.3030               129.0928
 Raman Activ --     0.6210                 2.2627                 1.1197

                    58                     59                     60
                     A                      A                      A
 Frequencies --  1040.6477              1055.5923              1059.0664
 Red. masses --     4.3372                 3.4827                 5.5698
 Frc consts  --     2.7674                 2.2864                 3.6807
 IR Inten    --   395.1760                46.0705                60.7449
 Raman Activ --     3.7025                 4.8703                 1.4665

                    61                     62                     63
                     A                      A                      A
 Frequencies --  1061.8094              1069.4030              1078.9247
 Red. masses --     3.6900                 3.2971                 6.0234
 Frc consts  --     2.4512                 2.2216                 4.1312
 IR Inten    --     7.2893                53.1533                34.8668
 Raman Activ --     3.4515                 8.3375                14.1835

                    64                     65                     66
                     A                      A                      A
 Frequencies --  1091.2632              1103.0461              1112.2555
 Red. masses --     2.6652                 2.5575                 3.7691
 Frc consts  --     1.8700                 1.8334                 2.7472
 IR Inten    --    95.1648                 6.5708                17.6774
 Raman Activ --    15.9905                 5.1399                18.4117

                    67                     68                     69
                     A                      A                      A
 Frequencies --  1120.6049              1138.2439              1148.2706
 Red. masses --     2.9137                 2.6480                 2.9353
 Frc consts  --     2.1558                 2.0213                 2.2803
 IR Inten    --    46.0311                29.5574                43.5062
 Raman Activ --     1.8017                 6.0092                 2.7612

                    70                     71                     72
                     A                      A                      A
 Frequencies --  1157.0292              1158.9200              1166.9907
 Red. masses --     3.2402                 1.8469                 2.1222
 Frc consts  --     2.5557                 1.4615                 1.7028
 IR Inten    --    40.8073                13.9981                16.7053
 Raman Activ --     3.9778                 0.8607                 3.6486

                    73                     74                     75
                     A                      A                      A
 Frequencies --  1180.6059              1185.5291              1208.2247
 Red. masses --     2.0641                 2.0518                 1.3968
 Frc consts  --     1.6951                 1.6990                 1.2014
 IR Inten    --     0.9263                60.0660                11.7825
 Raman Activ --     2.6971                 2.8670                 0.8806

                    76                     77                     78
                     A                      A                      A
 Frequencies --  1216.3339              1220.5655              1235.6224
 Red. masses --     1.7416                 1.5279                 1.1671
 Frc consts  --     1.5181                 1.3411                 1.0499
 IR Inten    --    23.1261                 1.6904                 3.9128
 Raman Activ --     2.7240                 0.8526                 2.1994

                    79                     80                     81
                     A                      A                      A
 Frequencies --  1240.7830              1251.9178              1266.7305
 Red. masses --     1.2646                 1.3018                 1.2875
 Frc consts  --     1.1471                 1.2021                 1.2172
 IR Inten    --     9.7084                21.8516                17.9965
 Raman Activ --     1.4381                 1.3056                 2.7385

                    82                     83                     84
                     A                      A                      A
 Frequencies --  1282.4280              1285.5248              1295.4512
 Red. masses --     1.3704                 1.2868                 1.3321
 Frc consts  --     1.3279                 1.2529                 1.3172
 IR Inten    --    35.9721                 1.5415                10.8504
 Raman Activ --     1.0224                 4.2638                 1.8158

                    85                     86                     87
                     A                      A                      A
 Frequencies --  1299.9117              1309.5324              1316.4478
 Red. masses --     1.1712                 1.1723                 1.2443
 Frc consts  --     1.1661                 1.1844                 1.2706
 IR Inten    --     7.9049                24.0982                 5.9421
 Raman Activ --     4.1239                 3.9126                 4.0517

                    88                     89                     90
                     A                      A                      A
 Frequencies --  1327.3360              1328.8129              1344.4213
 Red. masses --     1.2718                 1.1742                 1.2188
 Frc consts  --     1.3202                 1.2215                 1.2979
 IR Inten    --    25.1307                 9.8948                17.2425
 Raman Activ --     3.8315                 8.1374                 3.4741

                    91                     92                     93
                     A                      A                      A
 Frequencies --  1357.0941              1363.9179              1372.5686
 Red. masses --     1.1787                 1.2638                 1.2805
 Frc consts  --     1.2790                 1.3852                 1.4213
 IR Inten    --    34.6086                21.5626                 4.5513
 Raman Activ --     3.5750                 2.1680                15.6679

                    94                     95                     96
                     A                      A                      A
 Frequencies --  1377.1637              1388.8654              1391.5019
 Red. masses --     1.3252                 1.4177                 1.5239
 Frc consts  --     1.4808                 1.6113                 1.7385
 IR Inten    --    18.6866                 6.3141                 2.9598
 Raman Activ --     2.4900                 4.2097                 3.1229

                    97                     98                     99
                     A                      A                      A
 Frequencies --  1399.6630              1402.0088              1414.2489
 Red. masses --     1.1276                 1.4654                 1.2674
 Frc consts  --     1.3016                 1.6971                 1.4935
 IR Inten    --    22.5228                 3.7247                 1.5767
 Raman Activ --     3.1581                 7.1954                 2.3854

                   100                    101                    102
                     A                      A                      A
 Frequencies --  1429.3047              1440.9478              1459.8771
 Red. masses --     1.3944                 1.3615                 1.4326
 Frc consts  --     1.6784                 1.6656                 1.7989
 IR Inten    --    38.2793                21.7834                40.3334
 Raman Activ --     1.7854                 0.4947                 0.4639

                   103                    104                    105
                     A                      A                      A
 Frequencies --  1469.4907              1470.9739              1482.2261
 Red. masses --     1.3087                 1.0796                 1.1524
 Frc consts  --     1.6650                 1.3763                 1.4917
 IR Inten    --    16.5183                 2.5213                 2.0781
 Raman Activ --     3.5655                 5.2751                 2.1534

                   106                    107                    108
                     A                      A                      A
 Frequencies --  1500.2995              1574.2463              3233.5158
 Red. masses --     1.2436                 1.1911                 1.0764
 Frc consts  --     1.6492                 1.7392                 6.6307
 IR Inten    --    43.3507                73.9320               104.5039
 Raman Activ --     1.5335                 1.0388               126.1484

                   109                    110                    111
                     A                      A                      A
 Frequencies --  3247.1906              3255.3371              3256.9866
 Red. masses --     1.0797                 1.0688                 1.0661
 Frc consts  --     6.7075                 6.6734                 6.6630
 IR Inten    --   257.2064                76.1401                38.6395
 Raman Activ --    64.0921               132.9294                30.9405

                   112                    113                    114
                     A                      A                      A
 Frequencies --  3259.0568              3263.5895              3268.1595
 Red. masses --     1.0720                 1.0775                 1.0825
 Frc consts  --     6.7086                 6.7615                 6.8122
 IR Inten    --   158.4314                95.0004                10.2982
 Raman Activ --    11.5166                91.0808                41.8529

                   115                    116                    117
                     A                      A                      A
 Frequencies --  3269.4466              3279.7126              3282.5242
 Red. masses --     1.0678                 1.0861                 1.0845
 Frc consts  --     6.7248                 6.8832                 6.8851
 IR Inten    --   279.5732                18.5066                 6.0460
 Raman Activ --   194.4015                10.9524               240.7533

                   118                    119                    120
                     A                      A                      A
 Frequencies --  3284.2903              3293.8646              3295.9297
 Red. masses --     1.0823                 1.0861                 1.0737
 Frc consts  --     6.8780                 6.9426                 6.8719
 IR Inten    --   109.6456                89.8278               562.2053
 Raman Activ --     7.7285                39.4347                63.7189

                   121                    122                    123
                     A                      A                      A
 Frequencies --  3302.4638              3310.6798              3316.3052
 Red. masses --     1.0851                 1.1056                 1.1047
 Frc consts  --     6.9729                 7.1399                 7.1580
 IR Inten    --   109.3475                64.6168                54.1294
 Raman Activ --    17.7014                45.2362                43.0844

                   124                    125                    126
                     A                      A                      A
 Frequencies --  3369.8302              3371.6328              3374.1271
 Red. masses --     1.0669                 1.0648                 1.0664
 Frc consts  --     7.1381                 7.1318                 7.1533
 IR Inten    --    36.8737                44.4357                49.8580
 Raman Activ --   148.6111               110.9103               147.3107

                   127                    128                    129
                     A                      A                      A
 Frequencies --  3377.0605              3889.2525              3890.2854
 Red. masses --     1.0681                 1.0674                 1.0676
 Frc consts  --     7.1771                 9.5131                 9.5198
 IR Inten    --    69.1308                77.2887                72.4850
 Raman Activ --   155.9395               112.7042               112.0117

 - Thermochemistry -
 -------------------
 Temperature   298.150 Kelvin.  Pressure   1.00000 Atm.
 Atom     1 has atomic number  8 and mass  15.99491

 Molecular mass:   342.11621 amu.
 Principal axes and moments of inertia in atomic units:
                           1         2         3
     Eigenvalues --  4564.64071********************
           X            0.99996  -0.00915  -0.00034
           Y            0.00915   0.99996   0.00003
           Z            0.00034  -0.00003   1.00000
 This molecule is an asymmetric top.
 Rotational symmetry number  1.
 Warning -- assumption of classical behavior for rotation
           may cause significant error
 Rotational temperatures (Kelvin)      0.01897     0.00715     0.00532
 Rotational constants (GHZ):           0.39537     0.14899     0.11086
    7 imaginary frequencies ignored.
 Zero-point vibrational energy     974325.6 (Joules/Mol)
                                  232.86941 (Kcal/Mol)
 Warning -- explicit consideration of  32 degrees of freedom as
           vibrations may cause significant error
 Vibrational temperatures:     43.77    92.54   106.88   119.06   158.67
          (Kelvin)            222.69   240.17   272.73   298.68   335.19
                              372.89   382.58   400.36   437.25   443.84
                              449.85   454.75   481.35   514.56   533.79
                              572.93   599.11   603.10   637.45   681.00
                              688.76   723.85   729.25   810.08   827.90
                              849.21   874.66   907.61   929.34   985.56
                             1017.26  1018.97  1035.13  1039.55  1180.63
                             1229.37  1243.65  1325.23  1355.74  1394.37
                             1398.26  1406.53  1425.88  1439.06  1470.59
                             1497.26  1518.76  1523.76  1527.70  1538.63
                             1552.33  1570.08  1587.04  1600.29  1612.30
                             1637.68  1652.10  1664.70  1667.43  1679.04
                             1698.63  1705.71  1738.36  1750.03  1756.12
                             1777.78  1785.21  1801.23  1822.54  1845.13
                             1849.58  1863.86  1870.28  1884.12  1894.07
                             1909.74  1911.86  1934.32  1952.55  1962.37
                             1974.82  1981.43  1998.27  2002.06  2013.80
                             2017.18  2034.79  2056.45  2073.20  2100.43
                             2114.27  2116.40  2132.59  2158.59  2264.99
                             4652.30  4671.98  4683.70  4686.07  4689.05
                             4695.57  4702.15  4704.00  4718.77  4722.81
                             4725.36  4739.13  4742.10  4751.50  4763.32
                             4771.42  4848.43  4851.02  4854.61  4858.83
                             5595.76  5597.25

 Zero-point correction=                           0.371101 (Hartree/Particle)
 Thermal correction to Energy=                    0.389701
 Thermal correction to Enthalpy=                  0.390645
 Thermal correction to Gibbs Free Energy=         0.324897
 Sum of electronic and zero-point Energies=          -1297.590905
 Sum of electronic and thermal Energies=             -1297.572305
 Sum of electronic and thermal Enthalpies=           -1297.571361
 Sum of electronic and thermal Free Energies=        -1297.637109

                     E (Thermal)             CV                S
                      KCal/Mol        Cal/Mol-Kelvin    Cal/Mol-Kelvin
 Total                  244.541             76.414            138.379
 Electronic               0.000              0.000              0.000
 Translational            0.889              2.981             43.384
 Rotational               0.889              2.981             35.153
 Vibrational            242.764             70.453             59.842
 Vibration     1          0.594              1.984              5.802
 Vibration     2          0.597              1.971              4.320
 Vibration     3          0.599              1.966              4.036
 Vibration     4          0.600              1.961              3.825
 Vibration     5          0.606              1.941              3.264
 Vibration     6          0.620              1.897              2.613
 Vibration     7          0.624              1.883              2.470
 Vibration     8          0.633              1.854              2.232
 Vibration     9          0.641              1.829              2.065
 Vibration    10          0.654              1.790              1.856
 Vibration    11          0.668              1.747              1.667
 Vibration    12          0.672              1.736              1.623
 Vibration    13          0.679              1.714              1.544
 Vibration    14          0.695              1.666              1.395
 Vibration    15          0.698              1.658              1.370
 Vibration    16          0.701              1.650              1.348
 Vibration    17          0.703              1.643              1.330
 Vibration    18          0.716              1.607              1.238
 Vibration    19          0.733              1.560              1.132
 Vibration    20          0.743              1.532              1.076
 Vibration    21          0.764              1.474              0.969
 Vibration    22          0.780              1.435              0.904
 Vibration    23          0.782              1.429              0.895
 Vibration    24          0.803              1.376              0.817
 Vibration    25          0.830              1.309              0.728
 Vibration    26          0.835              1.297              0.714
 Vibration    27          0.858              1.243              0.650
 Vibration    28          0.862              1.235              0.641
 Vibration    29          0.919              1.111              0.518
 Vibration    30          0.932              1.084              0.494
 Vibration    31          0.948              1.053              0.467
 Vibration    32          0.967              1.015              0.436

 Normal termination of Gaussian 09 at Sun Mar 27 02:28:22 2016.
