 Gaussian 09, Revision B.01,
 Gaussian 09:  EM64L-G09RevB.01 12-Aug-2010

 -------------------------------------------------
 # freq=raman b3lyp/6-31+g(2d,p) geom=connectivity
 -------------------------------------------------

 -----------------
 500 9224/9224.com
 -----------------
 Symbolic Z-matrix:
 Charge =  0 Multiplicity = 1

                         Standard orientation:
 ---------------------------------------------------------------------
 Center     Atomic      Atomic             Coordinates (Angstroms)
 Number     Number       Type             X           Y           Z
 ---------------------------------------------------------------------
      1          8           0        5.101906   -0.629735   -0.544221
      2          6           0        3.814633   -0.198146   -0.077531
      3          6           0        3.409282    1.246370   -0.321631
      4          8           0        4.323774    2.269568    0.099921
      5          1           0        5.143206    2.131116   -0.457431
      6          6           0        2.114672    1.527002    0.423976
      7          8           0        1.885114    2.929493    0.227882
      8          1           0        2.764367    3.222860    0.602321
      9          6           0        2.955175   -2.598114    0.073130
     10          8           0        1.885217   -3.552482    0.121095
     11          1           0        2.133385   -4.236776    0.806422
     12          6           0        2.793819   -1.221248   -0.549458
     13          8           0        1.537602   -0.739979   -0.051328
     14          6           0        1.022419    0.599123   -0.084939
     15          8           0       -0.132112    0.699369    0.760702
     16          6           0       -1.354466    0.267207    0.147768
     17          6           0       -1.851069   -1.094556    0.604182
     18          8           0       -1.012003   -2.238975    0.390745
     19          1           0       -0.130748   -2.062052    0.828309
     20          6           0       -2.962136   -1.376986   -0.394075
     21          8           0       -3.311256   -2.769001   -0.410187
     22          1           0       -2.443569   -3.244882   -0.555788
     23          6           0       -2.127619    2.569580   -0.313029
     24          8           0       -3.132483    3.594394   -0.309865
     25          1           0       -2.886077    4.422558   -0.812687
     26          6           0       -2.450851    1.282607    0.426342
     27          8           0       -3.740762    0.776052    0.055226
     28          6           0       -4.119293   -0.599578    0.211611
     29          8           0       -5.360215   -0.640187   -0.507567
     30          1           0       -6.065052   -0.304707    0.051234
     31          1           0       -4.258054   -0.845329    1.243721
     32          1           0       -2.715722   -1.017292   -1.371214
     33          1           0       -2.229524   -1.062955    1.604518
     34          1           0       -1.198567    0.226303   -0.910023
     35          1           0       -2.459800    1.489840    1.476044
     36          1           0       -1.917738    2.318900   -1.331857
     37          1           0       -1.238277    2.980661    0.117067
     38          1           0        5.752778   -0.503677    0.150096
     39          1           0        3.270585   -2.441574    1.083532
     40          1           0        3.765176   -3.072655   -0.440299
     41          1           0        2.779818   -1.283393   -1.617560
     42          1           0        3.851131   -0.299929    0.986992
     43          1           0        3.228587    1.369945   -1.368999
     44          1           0        2.267229    1.343008    1.466940
     45          1           0        0.761216    0.862345   -1.088626
 ---------------------------------------------------------------------

 SCF Done:  E(RB3LYP) =  -1297.96391681     A.U. after   14 cycles

 The electronic state is 1-A.
 Alpha  occ. eigenvalues --  -19.20137 -19.18918 -19.18344 -19.17398 -19.17250
 Alpha  occ. eigenvalues --  -19.16268 -19.15436 -19.14590 -19.14372 -19.14301
 Alpha  occ. eigenvalues --  -19.13431 -10.31527 -10.28252 -10.27551 -10.27138
 Alpha  occ. eigenvalues --  -10.26807 -10.25837 -10.25265 -10.25057 -10.24374
 Alpha  occ. eigenvalues --  -10.23900 -10.23031 -10.22728  -1.09546  -1.07808
 Alpha  occ. eigenvalues --   -1.06398  -1.06226  -1.04447  -1.03413  -1.03019
 Alpha  occ. eigenvalues --   -1.02875  -1.00797  -0.99430  -0.99041  -0.82758
 Alpha  occ. eigenvalues --   -0.81985  -0.79570  -0.78184  -0.72114  -0.69196
 Alpha  occ. eigenvalues --   -0.67418  -0.64276  -0.63592  -0.62277  -0.61188
 Alpha  occ. eigenvalues --   -0.60532  -0.57408  -0.56490  -0.54866  -0.53973
 Alpha  occ. eigenvalues --   -0.53586  -0.53284  -0.52693  -0.51916  -0.51152
 Alpha  occ. eigenvalues --   -0.50652  -0.49352  -0.48324  -0.47311  -0.46773
 Alpha  occ. eigenvalues --   -0.46066  -0.45593  -0.44380  -0.44314  -0.43925
 Alpha  occ. eigenvalues --   -0.42962  -0.41911  -0.41285  -0.40458  -0.40403
 Alpha  occ. eigenvalues --   -0.38917  -0.37398  -0.36639  -0.36368  -0.35737
 Alpha  occ. eigenvalues --   -0.35418  -0.34887  -0.34569  -0.33452  -0.32952
 Alpha  occ. eigenvalues --   -0.31638  -0.31524  -0.30808  -0.29649  -0.29318
 Alpha  occ. eigenvalues --   -0.29189  -0.28817  -0.28196  -0.27059  -0.26751
 Alpha  occ. eigenvalues --   -0.25881
 Alpha virt. eigenvalues --   -0.03784  -0.02508  -0.00774  -0.00073   0.00184
 Alpha virt. eigenvalues --    0.01043   0.01293   0.02399   0.02651   0.03059
 Alpha virt. eigenvalues --    0.03533   0.04089   0.04783   0.05204   0.05708

 Mulliken atomic charges:
              1
     1  O   -0.555390
     2  C   -0.167831
     3  C    0.278440
     4  O   -0.577892
     5  H    0.348133
     6  C   -0.190527
     7  O   -0.523205
     8  H    0.357009
     9  C   -0.301995
    10  O   -0.511008
    11  H    0.333760
    12  C    0.274190
    13  O   -0.252951
    14  C    0.369476
    15  O   -0.238182
    16  C    0.217635
    17  C   -0.055825
    18  O   -0.498613
    19  H    0.355321
    20  C   -0.045275
    21  O   -0.526280
    22  H    0.348623
    23  C   -0.304513
    24  O   -0.544523
    25  H    0.331804
    26  C    0.174756
    27  O   -0.244721
    28  C    0.261154
    29  O   -0.488648
    30  H    0.320770
    31  H    0.116433
    32  H    0.120795
    33  H    0.114103
    34  H    0.094205
    35  H    0.114861
    36  H    0.125274
    37  H    0.174452
    38  H    0.333656
    39  H    0.121440
    40  H    0.157438
    41  H    0.115160
    42  H    0.103173
    43  H    0.119716
    44  H    0.132534
    45  H    0.113067
 Sum of Mulliken atomic charges =   0.00000

 Dipole moment (field-independent basis, Debye):
    X=              9.1583    Y=              0.4416    Z=              1.9610  Tot=              9.3763
 Quadrupole moment (field-independent basis, Debye-Ang):
   XX=           -130.1141   YY=           -141.6556   ZZ=           -132.7467
   XY=             -8.2348   XZ=             -3.2040   YZ=            -11.9880

  Exact polarizability: 224.734   0.416 203.140  -1.242  -1.122 145.040
 Approx polarizability: 269.159  -0.701 265.000  -1.206   0.937 240.553

 ******    8 imaginary frequencies (negative Signs) ******

                     1                      2                      3
                     A                      A                      A
 Frequencies --  -311.4591              -276.2648              -269.7448
 Red. masses --     1.7207                 1.3183                 1.3778
 Frc consts  --     0.0983                 0.0593                 0.0591
 IR Inten    --     2.4851                69.9786                48.5295
 Raman Activ --     0.1111                 0.7712                 1.0306

                     4                      5                      6
                     A                      A                      A
 Frequencies --  -108.8085               -85.1208               -68.4369
 Red. masses --     7.1495                 6.2457                 6.5442
 Frc consts  --     0.0499                 0.0267                 0.0181
 IR Inten    --     3.3397                 0.2023                 3.1994
 Raman Activ --     0.0677                 0.0608                 0.0657

                     7                      8                      9
                     A                      A                      A
 Frequencies --   -35.9620               -19.5589                44.6435
 Red. masses --     6.2885                 5.7598                 4.8990
 Frc consts  --     0.0048                 0.0013                 0.0058
 IR Inten    --     0.6716                 5.4987                10.6734
 Raman Activ --     0.0923                 0.0874                 0.0654

                    10                     11                     12
                     A                      A                      A
 Frequencies --    59.7806               104.4081               119.7042
 Red. masses --     4.0732                 5.8049                 1.7864
 Frc consts  --     0.0086                 0.0373                 0.0151
 IR Inten    --    25.5446                 1.6084                72.8120
 Raman Activ --     0.2291                 0.3217                 0.5304

                    13                     14                     15
                     A                      A                      A
 Frequencies --   134.5169               150.8380               176.7040
 Red. masses --     6.2313                 6.9435                 5.6603
 Frc consts  --     0.0664                 0.0931                 0.1041
 IR Inten    --     0.7335                 0.6255                 1.6094
 Raman Activ --     0.0898                 0.6997                 0.3583

                    16                     17                     18
                     A                      A                      A
 Frequencies --   179.0705               207.6552               232.9577
 Red. masses --     5.6712                 5.8715                 4.2863
 Frc consts  --     0.1071                 0.1492                 0.1371
 IR Inten    --     2.7309                 0.1808                 6.4447
 Raman Activ --     0.1347                 2.4623                 0.5408

                    19                     20                     21
                     A                      A                      A
 Frequencies --   247.2728               283.9615               298.8334
 Red. masses --     3.3140                 6.2526                 4.7683
 Frc consts  --     0.1194                 0.2970                 0.2509
 IR Inten    --     8.3368                 1.6038                 4.1305
 Raman Activ --     0.2173                 0.1699                 0.6390

                    22                     23                     24
                     A                      A                      A
 Frequencies --   321.2857               335.3988               365.7153
 Red. masses --     6.5741                 5.5768                 6.0952
 Frc consts  --     0.3998                 0.3696                 0.4803
 IR Inten    --     1.4743                 7.5576                 4.9191
 Raman Activ --     8.3860                 1.6266                 0.6909

                    25                     26                     27
                     A                      A                      A
 Frequencies --   376.3202               382.6021               396.7767
 Red. masses --     5.3376                 3.7392                 5.5232
 Frc consts  --     0.4454                 0.3225                 0.5123
 IR Inten    --     2.2401                 2.5787                10.5293
 Raman Activ --     1.0117                 0.9839                 0.5420

                    28                     29                     30
                     A                      A                      A
 Frequencies --   414.6543               420.9004               439.4859
 Red. masses --     6.2520                 4.2587                 6.2146
 Frc consts  --     0.6333                 0.4445                 0.7072
 IR Inten    --     0.9905                 5.0877                 9.2851
 Raman Activ --     3.5248                 3.0747                 1.5412

                    31                     32                     33
                     A                      A                      A
 Frequencies --   444.4290               476.2940               479.9668
 Red. masses --     5.3304                 4.1472                 5.1547
 Frc consts  --     0.6203                 0.5543                 0.6996
 IR Inten    --     4.3495                 1.1474                12.1622
 Raman Activ --     1.2527                 5.0268                 0.7464

                    34                     35                     36
                     A                      A                      A
 Frequencies --   541.1711               555.2863               571.5522
 Red. masses --     4.9363                 3.6022                 5.4108
 Frc consts  --     0.8518                 0.6544                 1.0414
 IR Inten    --    17.1875                 2.3077                 4.1022
 Raman Activ --     0.5704                 2.8447                 3.7788

                    37                     38                     39
                     A                      A                      A
 Frequencies --   597.2637               610.2822               619.5136
 Red. masses --     3.6677                 3.3045                 3.9592
 Frc consts  --     0.7709                 0.7251                 0.8953
 IR Inten    --    19.0260                11.4733                27.4183
 Raman Activ --     1.3122                 0.1681                 0.4024

                    40                     41                     42
                     A                      A                      A
 Frequencies --   639.4560               649.0808               660.3638
 Red. masses --     1.0616                 2.9719                 3.9989
 Frc consts  --     0.2558                 0.7377                 1.0274
 IR Inten    --   108.1954                17.7157                13.3833
 Raman Activ --     2.4917                 0.4969                 0.2359

                    43                     44                     45
                     A                      A                      A
 Frequencies --   682.9202               705.8566               747.6663
 Red. masses --     1.0829                 1.1620                 1.1304
 Frc consts  --     0.2976                 0.3411                 0.3723
 IR Inten    --    79.5791               127.7576               196.3592
 Raman Activ --     1.7183                 1.9172                 3.2113

                    46                     47                     48
                     A                      A                      A
 Frequencies --   765.7024               766.4892               825.0371
 Red. masses --     1.1062                 1.1210                 2.8140
 Frc consts  --     0.3821                 0.3880                 1.1285
 IR Inten    --   101.6169                61.1359                23.3506
 Raman Activ --     1.5129                 2.1501                 4.1317

                    49                     50                     51
                     A                      A                      A
 Frequencies --   837.1111               924.3016               929.7153
 Red. masses --     2.7963                 5.0295                 5.7379
 Frc consts  --     1.1545                 2.5316                 2.9221
 IR Inten    --    34.8382               322.5305               137.7697
 Raman Activ --     3.4717                 2.3618                 2.6090

                    52                     53                     54
                     A                      A                      A
 Frequencies --   954.2989               959.5409               982.6840
 Red. masses --     4.9618                 5.4064                 3.5215
 Frc consts  --     2.6623                 2.9328                 2.0036
 IR Inten    --    43.5033               169.4406                16.5606
 Raman Activ --     0.7941                 4.0338                 2.0673

                    55                     56                     57
                     A                      A                      A
 Frequencies --  1000.6709              1003.2749              1011.0302
 Red. masses --     4.5485                 4.7349                 4.1942
 Frc consts  --     2.6835                 2.8080                 2.5260
 IR Inten    --    29.0003                66.5835               148.2815
 Raman Activ --     3.0346                 1.2694                 4.5221

                    58                     59                     60
                     A                      A                      A
 Frequencies --  1034.7624              1041.0793              1054.5068
 Red. masses --     3.1419                 2.4405                 4.6406
 Frc consts  --     1.9821                 1.5584                 3.0403
 IR Inten    --   340.9379                56.0143                67.5157
 Raman Activ --     2.3697                 7.6006                 4.9976

                    61                     62                     63
                     A                      A                      A
 Frequencies --  1064.1377              1068.3603              1076.3596
 Red. masses --     3.7053                 6.2859                 2.8872
 Frc consts  --     2.4721                 4.2272                 1.9708
 IR Inten    --   173.7110               139.2535                 6.5208
 Raman Activ --    12.5040                 3.9591                 8.4356

                    64                     65                     66
                     A                      A                      A
 Frequencies --  1079.2084              1085.4747              1089.0854
 Red. masses --     2.6261                 5.0921                 3.6991
 Frc consts  --     1.8020                 3.5350                 2.5851
 IR Inten    --    12.8855                81.2326                63.7181
 Raman Activ --     8.0883                 2.9796                12.5328

                    67                     68                     69
                     A                      A                      A
 Frequencies --  1106.1002              1124.7147              1130.0877
 Red. masses --     2.8811                 1.9015                 2.5500
 Frc consts  --     2.0768                 1.4172                 1.9187
 IR Inten    --    80.8318                34.2538                29.1212
 Raman Activ --     5.5893                 1.0340                 2.2480

                    70                     71                     72
                     A                      A                      A
 Frequencies --  1136.0736              1140.5441              1156.2656
 Red. masses --     3.0486                 2.2230                 2.0923
 Frc consts  --     2.3183                 1.7038                 1.6481
 IR Inten    --    11.6802                23.0976                54.4256
 Raman Activ --     5.9293                 2.7965                 2.1985

                    73                     74                     75
                     A                      A                      A
 Frequencies --  1169.7013              1176.3159              1188.7783
 Red. masses --     2.6506                 2.5711                 2.3084
 Frc consts  --     2.1367                 2.0962                 1.9220
 IR Inten    --    37.2665                 2.4210                 8.8866
 Raman Activ --     5.4784                 3.8061                 1.5174

                    76                     77                     78
                     A                      A                      A
 Frequencies --  1201.6477              1215.3173              1225.8367
 Red. masses --     1.4579                 1.4076                 1.2807
 Frc consts  --     1.2403                 1.2250                 1.1339
 IR Inten    --     8.4382                 1.7609                 1.8820
 Raman Activ --     1.9777                 2.0175                 1.9113

                    79                     80                     81
                     A                      A                      A
 Frequencies --  1247.1618              1248.7055              1252.3691
 Red. masses --     1.2626                 1.2429                 1.2694
 Frc consts  --     1.1571                 1.1418                 1.1731
 IR Inten    --     7.2069                18.3434                 8.9347
 Raman Activ --     1.6171                 4.3254                 1.9617

                    82                     83                     84
                     A                      A                      A
 Frequencies --  1265.7938              1268.0387              1270.5191
 Red. masses --     1.1431                 1.2977                 1.2522
 Frc consts  --     1.0791                 1.2294                 1.1909
 IR Inten    --    13.3456                28.8820                 7.2303
 Raman Activ --     6.6181                 0.9527                 0.8094

                    85                     86                     87
                     A                      A                      A
 Frequencies --  1289.5828              1300.8612              1307.1907
 Red. masses --     1.1682                 1.2361                 1.2744
 Frc consts  --     1.1447                 1.2324                 1.2830
 IR Inten    --     3.7042                14.2729                36.1321
 Raman Activ --     3.1204                 2.1271                 2.6769

                    88                     89                     90
                     A                      A                      A
 Frequencies --  1314.3012              1318.1790              1329.3107
 Red. masses --     1.2295                 1.1850                 1.3328
 Frc consts  --     1.2513                 1.2132                 1.3877
 IR Inten    --    13.7931                14.5523                 7.4468
 Raman Activ --     7.0820                 1.3265                 3.6925

                    91                     92                     93
                     A                      A                      A
 Frequencies --  1331.4555              1336.9702              1342.5777
 Red. masses --     1.2011                 1.2848                 1.5465
 Frc consts  --     1.2546                 1.3531                 1.6424
 IR Inten    --    12.1489                23.5865                 3.1340
 Raman Activ --     7.4984                 1.3705                 3.9085

                    94                     95                     96
                     A                      A                      A
 Frequencies --  1352.7032              1364.1398              1376.8113
 Red. masses --     1.3947                 1.1029                 1.6272
 Frc consts  --     1.5036                 1.2092                 1.8174
 IR Inten    --    33.3293                39.2907                19.4196
 Raman Activ --     2.5036                 2.8129                 4.4941

                    97                     98                     99
                     A                      A                      A
 Frequencies --  1396.9277              1406.3732              1421.3894
 Red. masses --     1.3841                 1.1929                 1.2160
 Frc consts  --     1.5913                 1.3901                 1.4475
 IR Inten    --    20.3255                 1.4033                 2.8736
 Raman Activ --     5.7706                 4.4863                 5.7573

                   100                    101                    102
                     A                      A                      A
 Frequencies --  1426.6771              1438.7862              1446.4222
 Red. masses --     1.3870                 1.4049                 1.3815
 Frc consts  --     1.6634                 1.7135                 1.7030
 IR Inten    --    19.9690                12.5911                35.7575
 Raman Activ --     3.6930                 0.6544                 2.6679

                   103                    104                    105
                     A                      A                      A
 Frequencies --  1461.3647              1465.3693              1474.4597
 Red. masses --     1.0710                 1.0788                 1.3567
 Frc consts  --     1.3476                 1.3649                 1.7377
 IR Inten    --     5.2434                 2.7902                13.7945
 Raman Activ --     5.5242                 5.1220                 0.3299

                   106                    107                    108
                     A                      A                      A
 Frequencies --  1489.8237              1569.6387              3253.8334
 Red. masses --     1.4002                 1.2403                 1.0614
 Frc consts  --     1.8310                 1.8005                 6.6207
 IR Inten    --    83.9364                84.7764                37.9754
 Raman Activ --     2.3649                 1.7157                48.2051

                   109                    110                    111
                     A                      A                      A
 Frequencies --  3255.2717              3262.9055              3267.1097
 Red. masses --     1.0598                 1.0792                 1.0829
 Frc consts  --     6.6170                 6.7694                 6.8102
 IR Inten    --    38.3861                 6.2149                 0.1790
 Raman Activ --    67.5988               117.6999                19.3020

                   112                    113                    114
                     A                      A                      A
 Frequencies --  3273.8434              3275.0335              3277.3988
 Red. masses --     1.0845                 1.0832                 1.0848
 Frc consts  --     6.8488                 6.8451                 6.8653
 IR Inten    --    13.2508                 4.5268                 9.3129
 Raman Activ --    17.5888                31.0181               106.2555

                   115                    116                    117
                     A                      A                      A
 Frequencies --  3281.8029              3284.8611              3289.3583
 Red. masses --     1.0849                 1.0874                 1.0841
 Frc consts  --     6.8841                 6.9133                 6.9111
 IR Inten    --    18.1285                 2.7373                11.4930
 Raman Activ --    17.0179                68.8179               211.3906

                   118                    119                    120
                     A                      A                      A
 Frequencies --  3295.7670              3302.8921              3309.2184
 Red. masses --     1.0877                 1.0875                 1.1003
 Frc consts  --     6.9607                 6.9896                 7.0994
 IR Inten    --    43.7812                69.6808                74.2354
 Raman Activ --     4.1977                 8.7892                65.3321

                   121                    122                    123
                     A                      A                      A
 Frequencies --  3315.8651              3353.6846              3362.1203
 Red. masses --     1.1040                 1.0637                 1.0642
 Frc consts  --     7.1516                 7.0489                 7.0879
 IR Inten    --    43.9725               117.2151                76.7824
 Raman Activ --    35.2816                78.0727                76.4645

                   124                    125                    126
                     A                      A                      A
 Frequencies --  3367.8422              3371.3400              3373.5907
 Red. masses --     1.0659                 1.0678                 1.0671
 Frc consts  --     7.1229                 7.1507                 7.1552
 IR Inten    --    39.5202                52.3323                65.9371
 Raman Activ --   104.7518               173.7051               164.9716

                   127                    128                    129
                     A                      A                      A
 Frequencies --  3377.7418              3882.3951              3889.4529
 Red. masses --     1.0662                 1.0674                 1.0669
 Frc consts  --     7.1669                 9.4794                 9.5097
 IR Inten    --    91.8517                60.6094                63.6262
 Raman Activ --    86.7612                97.1378               138.0075

 - Thermochemistry -
 -------------------
 Temperature   298.150 Kelvin.  Pressure   1.00000 Atm.
 Atom     1 has atomic number  8 and mass  15.99491

 Molecular mass:   342.11621 amu.
 Principal axes and moments of inertia in atomic units:
                           1         2         3
     Eigenvalues --  4780.78824********************
           X            0.99997  -0.00730  -0.00022
           Y            0.00730   0.99995  -0.00701
           Z            0.00027   0.00700   0.99998
 This molecule is an asymmetric top.
 Rotational symmetry number  1.
 Warning -- assumption of classical behavior for rotation
           may cause significant error
 Rotational temperatures (Kelvin)      0.01812     0.00740     0.00542
 Rotational constants (GHZ):           0.37750     0.15429     0.11284
    8 imaginary frequencies ignored.
 Zero-point vibrational energy     972779.5 (Joules/Mol)
                                  232.49988 (Kcal/Mol)
 Warning -- explicit consideration of  31 degrees of freedom as
           vibrations may cause significant error
 Vibrational temperatures:     64.23    86.01   150.22   172.23   193.54
          (Kelvin)            217.02   254.24   257.64   298.77   335.17
                              355.77   408.56   429.95   462.26   482.56
                              526.18   541.44   550.48   570.87   596.59
                              605.58   632.32   639.43   685.28   690.56
                              778.62   798.93   822.34   859.33   878.06
                              891.34   920.03   933.88   950.11   982.57
                             1015.57  1075.72  1101.67  1102.81  1187.04
                             1204.41  1329.86  1337.65  1373.02  1380.56
                             1413.86  1439.74  1443.49  1454.65  1488.79
                             1497.88  1517.20  1531.05  1537.13  1548.64
                             1552.74  1561.75  1566.95  1591.43  1618.21
                             1625.94  1634.55  1640.99  1663.61  1682.94
                             1692.45  1710.38  1728.90  1748.57  1763.70
                             1794.39  1796.61  1801.88  1821.19  1824.42
                             1827.99  1855.42  1871.65  1880.75  1890.98
                             1896.56  1912.58  1915.67  1923.60  1931.67
                             1946.24  1962.69  1980.92  2009.86  2023.45
                             2045.06  2052.67  2070.09  2081.08  2102.58
                             2108.34  2121.42  2143.52  2258.36  4681.53
                             4683.60  4694.59  4700.64  4710.32  4712.04
                             4715.44  4721.78  4726.18  4732.65  4741.87
                             4752.12  4761.22  4770.78  4825.20  4837.34
                             4845.57  4850.60  4853.84  4859.81  5585.89
                             5596.05

 Zero-point correction=                           0.370512 (Hartree/Particle)
 Thermal correction to Energy=                    0.388202
 Thermal correction to Enthalpy=                  0.389146
 Thermal correction to Gibbs Free Energy=         0.325772
 Sum of electronic and zero-point Energies=          -1297.593405
 Sum of electronic and thermal Energies=             -1297.575715
 Sum of electronic and thermal Enthalpies=           -1297.574771
 Sum of electronic and thermal Free Energies=        -1297.638145

                     E (Thermal)             CV                S
                      KCal/Mol        Cal/Mol-Kelvin    Cal/Mol-Kelvin
 Total                  243.600             74.333            133.381
 Electronic               0.000              0.000              0.000
 Translational            0.889              2.981             43.384
 Rotational               0.889              2.981             35.146
 Vibrational            241.823             68.371             54.850
 Vibration     1          0.595              1.980              5.042
 Vibration     2          0.597              1.973              4.464
 Vibration     3          0.605              1.946              3.370
 Vibration     4          0.609              1.933              3.105
 Vibration     5          0.613              1.919              2.880
 Vibration     6          0.618              1.902              2.662
 Vibration     7          0.628              1.871              2.363
 Vibration     8          0.629              1.868              2.338
 Vibration     9          0.641              1.829              2.064
 Vibration    10          0.654              1.791              1.856
 Vibration    11          0.661              1.767              1.750
 Vibration    12          0.682              1.703              1.510
 Vibration    13          0.692              1.676              1.423
 Vibration    14          0.707              1.633              1.304
 Vibration    15          0.717              1.605              1.234
 Vibration    16          0.739              1.543              1.098
 Vibration    17          0.747              1.521              1.054
 Vibration    18          0.752              1.507              1.029
 Vibration    19          0.763              1.477              0.975
 Vibration    20          0.778              1.438              0.910
 Vibration    21          0.783              1.425              0.889
 Vibration    22          0.800              1.384              0.828
 Vibration    23          0.804              1.373              0.813
 Vibration    24          0.833              1.303              0.720
 Vibration    25          0.836              1.294              0.710
 Vibration    26          0.896              1.159              0.563
 Vibration    27          0.911              1.128              0.533
 Vibration    28          0.928              1.093              0.501
 Vibration    29          0.955              1.038              0.454
 Vibration    30          0.969              1.010              0.432
 Vibration    31          0.979              0.991              0.417

 Normal termination of Gaussian 09 at Sat Apr  2 18:03:18 2016.
