 Gaussian 09, Revision B.01,
 Gaussian 09:  EM64L-G09RevB.01 12-Aug-2010

 -------------------------------
 ## freq=raman b3lyp/6-31+g(d,p)
 -------------------------------

 -----------------------------
 450K 7000ps Cellobiose Unit 1
 -----------------------------
 Symbolic Z-matrix:
 Charge =  0 Multiplicity = 1

                         Standard orientation:
 ---------------------------------------------------------------------
 Center     Atomic      Atomic             Coordinates (Angstroms)
 Number     Number       Type             X           Y           Z
 ---------------------------------------------------------------------
      1          8           0        4.941072    0.765139    0.840597
      2          6           0        3.920351    0.377288   -0.090327
      3          6           0        3.502929   -1.051920    0.213574
      4          8           0        4.301758   -2.068205   -0.408720
      5          1           0        5.273177   -2.064534   -0.169779
      6          6           0        2.175651   -1.557340   -0.329986
      7          8           0        1.742700   -2.750255    0.340733
      8          1           0        2.602936   -3.256501    0.400576
      9          6           0        3.083612    2.812183   -0.168382
     10          8           0        1.962996    3.700935   -0.053118
     11          1           0        2.323395    4.613187   -0.250372
     12          6           0        2.784493    1.357725    0.155641
     13          8           0        1.728451    0.725321   -0.581595
     14          6           0        1.142791   -0.476076   -0.057534
     15          8           0       -0.133158   -0.642817   -0.692580
     16          6           0       -1.339219   -0.260836   -0.015878
     17          6           0       -2.013232    1.078400   -0.265069
     18          8           0       -0.954332    1.937487    0.180135
     19          1           0       -0.186800    1.415186   -0.190736
     20          6           0       -3.413690    1.308907    0.279442
     21          8           0       -3.892863    2.660311    0.327832
     22          1           0       -3.432296    3.256113    0.985361
     23          6           0       -1.856994   -2.632165   -0.421421
     24          8           0       -1.827297   -3.368055    0.809413
     25          1           0       -1.593255   -4.303242    0.542015
     26          6           0       -2.424921   -1.222744   -0.471589
     27          8           0       -3.752273   -1.031610    0.038945
     28          6           0       -4.301040    0.240094   -0.338363
     29          8           0       -5.639894    0.117800    0.161922
     30          1           0        5.801054    0.514514    0.495315
     31          1           0       -6.169863   -0.384223   -0.461540
 ---------------------------------------------------------------------

 SCF Done:  E(RB3LYP) =  -1288.80495384     A.U. after   30 cycles

 The electronic state is 1-A.
 Alpha  occ. eigenvalues --  -19.26137 -19.25738 -19.24662 -19.22389 -19.21025
 Alpha  occ. eigenvalues --  -19.20931 -19.20861 -19.20670 -19.20539 -19.20358
 Alpha  occ. eigenvalues --  -19.19104 -10.34563 -10.32934 -10.32133 -10.32031
 Alpha  occ. eigenvalues --  -10.31743 -10.31638 -10.31433 -10.29269 -10.28525
 Alpha  occ. eigenvalues --  -10.28329 -10.26449 -10.26004  -1.12697  -1.11529
 Alpha  occ. eigenvalues --   -1.08796  -1.07564  -1.07077  -1.06184  -1.05678
 Alpha  occ. eigenvalues --   -1.05042  -1.04957  -1.04129  -1.04067  -0.82798
 Alpha  occ. eigenvalues --   -0.80052  -0.78046  -0.76860  -0.70683  -0.68725
 Alpha  occ. eigenvalues --   -0.66512  -0.64546  -0.62456  -0.61180  -0.58301
 Alpha  occ. eigenvalues --   -0.56732  -0.56397  -0.54953  -0.53796  -0.53446
 Alpha  occ. eigenvalues --   -0.51903  -0.50706  -0.49423  -0.48793  -0.48407
 Alpha  occ. eigenvalues --   -0.47469  -0.46632  -0.46049  -0.45316  -0.44478
 Alpha  occ. eigenvalues --   -0.43952  -0.43673  -0.42614  -0.42209  -0.41834
 Alpha  occ. eigenvalues --   -0.41239  -0.40654  -0.39474  -0.38584  -0.37875
 Alpha  occ. eigenvalues --   -0.37322  -0.36428  -0.36136  -0.34823  -0.33421
 Alpha  occ. eigenvalues --   -0.33232  -0.30804  -0.30043  -0.27799  -0.26728
 Alpha  occ. eigenvalues --   -0.25828  -0.24116  -0.21402  -0.17416
 Alpha virt. eigenvalues --   -0.15248  -0.12773  -0.11012  -0.09949  -0.09218
 Alpha virt. eigenvalues --   -0.07950  -0.03481  -0.01939  -0.01532  -0.01201
 Alpha virt. eigenvalues --   -0.00199   0.00873   0.01539   0.03609   0.04284

 Mulliken atomic charges:
              1
     1  O   -0.485430
     2  C    0.383054
     3  C    0.345561
     4  O   -0.541770
     5  H    0.358606
     6  C   -0.435677
     7  O   -0.414438
     8  H    0.366130
     9  C   -0.383156
    10  O   -0.463898
    11  H    0.400791
    12  C    0.214335
    13  O   -0.286644
    14  C    0.456626
    15  O   -0.263452
    16  C    0.676672
    17  C    0.138136
    18  O   -0.381532
    19  H    0.371519
    20  C   -0.170261
    21  O   -0.441695
    22  H    0.386006
    23  C   -0.452911
    24  O   -0.353777
    25  H    0.397331
    26  C    0.149945
    27  O   -0.218020
    28  C    0.409544
    29  O   -0.475676
    30  H    0.347356
    31  H    0.366728
 Sum of Mulliken atomic charges =   0.00000

 Dipole moment (field-independent basis, Debye):
    X=              0.2673    Y=             -3.1305    Z=              0.0141  Tot=              3.1419
 Quadrupole moment (field-independent basis, Debye-Ang):
   XX=           -105.4955   YY=           -110.5789   ZZ=           -138.2920
   XY=             -6.8704   XZ=              3.0559   YZ=             -1.0717

  Exact polarizability: 717.097  46.467 353.122  21.534   7.841 125.124
 Approx polarizability:5292.906 541.519 870.761 455.655  81.887 284.618

 ******    4 imaginary frequencies (negative Signs) ******

                     1                      2                      3
                     A                      A                      A
 Frequencies --  -430.2988              -414.3184              -193.5548
 Red. masses --     1.1799                 1.1512                 7.0366
 Frc consts  --     0.1287                 0.1164                 0.1553
 IR Inten    --    91.1453                68.0024               189.1372
 Raman Activ --   220.5634                59.0749               412.1241

                     4                      5                      6
                     A                      A                      A
 Frequencies --   -85.7712                44.2314                67.1930
 Red. masses --    10.6550                 8.8572                 9.0596
 Frc consts  --     0.0462                 0.0102                 0.0241
 IR Inten    --    21.5258                20.6136                 0.4274
 Raman Activ --   349.0408                32.7778                 8.5160

                     7                      8                      9
                     A                      A                      A
 Frequencies --    82.8862                97.7729               114.1824
 Red. masses --     7.1758                 8.0492                 7.9959
 Frc consts  --     0.0290                 0.0453                 0.0614
 IR Inten    --     3.1069                22.6710                16.3146
 Raman Activ --    41.5890                31.7831                35.2600

                    10                     11                     12
                     A                      A                      A
 Frequencies --   133.1286               150.1927               162.6535
 Red. masses --     8.5198                 9.0009                 8.4817
 Frc consts  --     0.0890                 0.1196                 0.1322
 IR Inten    --     1.0510                15.5997                 0.9287
 Raman Activ --    79.3568                 6.1315                19.4397

                    13                     14                     15
                     A                      A                      A
 Frequencies --   179.0067               190.3679               208.1297
 Red. masses --     8.5963                 8.0391                 7.9122
 Frc consts  --     0.1623                 0.1716                 0.2019
 IR Inten    --     9.2626                 2.8354                25.4131
 Raman Activ --    19.2161                32.3081                14.1834

                    16                     17                     18
                     A                      A                      A
 Frequencies --   222.5695               240.3012               269.0438
 Red. masses --     6.7197                 8.0605                 9.7672
 Frc consts  --     0.1961                 0.2742                 0.4165
 IR Inten    --    11.7351                45.2063                75.6226
 Raman Activ --   113.8307                43.5470                56.0632

                    19                     20                     21
                     A                      A                      A
 Frequencies --   281.2843               285.6785               304.7384
 Red. masses --     9.4241                 8.6860                 7.6302
 Frc consts  --     0.4393                 0.4177                 0.4175
 IR Inten    --    60.7129                69.1411                25.6685
 Raman Activ --   108.4463                37.9042                11.9431

                    22                     23                     24
                     A                      A                      A
 Frequencies --   309.5810               313.3724               319.0171
 Red. masses --     8.3949                 9.1862                10.1631
 Frc consts  --     0.4740                 0.5315                 0.6094
 IR Inten    --    15.2684               149.9619                61.8935
 Raman Activ --    58.4225               117.8847                95.1464

                    25                     26                     27
                     A                      A                      A
 Frequencies --   340.4346               354.3778               361.7880
 Red. masses --     8.6834                 9.3126                 7.8808
 Frc consts  --     0.5929                 0.6891                 0.6078
 IR Inten    --     6.8410                17.9098               161.0689
 Raman Activ --    75.8448                27.5287                72.2803

                    28                     29                     30
                     A                      A                      A
 Frequencies --   408.1763               418.2662               439.5283
 Red. masses --    10.0334                 9.3018                10.0484
 Frc consts  --     0.9849                 0.9588                 1.1437
 IR Inten    --    67.4423                13.0166                36.6344
 Raman Activ --    56.6566               145.9651                34.1774

                    31                     32                     33
                     A                      A                      A
 Frequencies --   459.3247               475.6916               493.7348
 Red. masses --    10.3806                10.3753                 8.3356
 Frc consts  --     1.2904                 1.3833                 1.1972
 IR Inten    --   123.0047                14.1949               414.6880
 Raman Activ --   116.6351               245.2006               119.8908

                    34                     35                     36
                     A                      A                      A
 Frequencies --   507.4071               529.5090               543.8222
 Red. masses --     7.0887                 3.0140                 4.8567
 Frc consts  --     1.0753                 0.4979                 0.8463
 IR Inten    --   165.3600               214.9286                15.0139
 Raman Activ --   260.3681                12.5723                31.5747

                    37                     38                     39
                     A                      A                      A
 Frequencies --   554.4790               602.4524               606.3746
 Red. masses --     3.0419                 3.2590                 7.9722
 Frc consts  --     0.5510                 0.6969                 1.7271
 IR Inten    --    37.1899                22.8849                 8.5326
 Raman Activ --   115.2884                63.0232                58.7658

                    40                     41                     42
                     A                      A                      A
 Frequencies --   624.1278               659.8103               670.8784
 Red. masses --     7.8568                 6.8526                 7.2699
 Frc consts  --     1.8032                 1.7577                 1.9278
 IR Inten    --    25.3543               130.5788               331.2946
 Raman Activ --    19.4847                36.8902                52.7965

                    43                     44                     45
                     A                      A                      A
 Frequencies --   687.1656               699.2912               713.8353
 Red. masses --     5.2191                 5.5604                 1.2786
 Frc consts  --     1.4520                 1.6020                 0.3839
 IR Inten    --    50.9870               197.1636                48.3942
 Raman Activ --    53.5555               273.9542                17.3659

                    46                     47                     48
                     A                      A                      A
 Frequencies --   734.4723               769.5408               777.2416
 Red. masses --     5.3346                 1.5965                 3.8966
 Frc consts  --     1.6955                 0.5570                 1.3869
 IR Inten    --   199.8397               126.1262                 7.4736
 Raman Activ --    40.8346                57.5890                25.3853

                    49                     50                     51
                     A                      A                      A
 Frequencies --   788.3813               804.6084               828.1173
 Red. masses --     4.6192                 4.4715                 2.0603
 Frc consts  --     1.6916                 1.7056                 0.8325
 IR Inten    --    17.2564               326.0825               237.9655
 Raman Activ --   205.4113                 6.8693                61.4947

                    52                     53                     54
                     A                      A                      A
 Frequencies --   833.0486               855.4327               872.9745
 Red. masses --     8.3482                 4.2614                 4.0095
 Frc consts  --     3.4134                 1.8373                 1.8003
 IR Inten    --   106.9792                66.9588               290.4376
 Raman Activ --    76.9810                22.6623               179.8316

                    55                     56                     57
                     A                      A                      A
 Frequencies --   878.9540               882.9960               907.5930
 Red. masses --     2.1230                 1.2047                 7.7032
 Frc consts  --     0.9663                 0.5534                 3.7386
 IR Inten    --    49.2493                75.8152               240.8122
 Raman Activ --    55.1244                14.3177                12.2581

                    58                     59                     60
                     A                      A                      A
 Frequencies --   929.9578               946.6255               958.2516
 Red. masses --     7.1918                 5.4197                 6.2712
 Frc consts  --     3.6645                 2.8614                 3.3928
 IR Inten    --   254.0127               131.1857               451.6225
 Raman Activ --    29.4751               565.8785                24.0494

                    61                     62                     63
                     A                      A                      A
 Frequencies --   981.1047              1003.4404              1004.3180
 Red. masses --     5.7019                 7.5955                 7.9133
 Frc consts  --     3.2337                 4.5060                 4.7027
 IR Inten    --    73.3808                67.3398               947.6419
 Raman Activ --     6.9558                87.9311               191.3190

                    64                     65                     66
                     A                      A                      A
 Frequencies --  1029.5305              1044.6260              1049.8692
 Red. masses --     7.4113                 7.7758                 6.0868
 Frc consts  --     4.6283                 4.9994                 3.9529
 IR Inten    --   288.6389               705.8201                91.9389
 Raman Activ --    45.5950               181.2302                44.8923

                    67                     68                     69
                     A                      A                      A
 Frequencies --  1056.7521              1072.3968              1083.0037
 Red. masses --     4.3878                 3.5423                 6.0974
 Frc consts  --     2.8870                 2.4002                 4.2136
 IR Inten    --   151.3573               424.1480               162.1793
 Raman Activ --    15.6449               126.1627                35.5637

                    70                     71                     72
                     A                      A                      A
 Frequencies --  1100.9376              1114.6258              1207.9783
 Red. masses --     7.6718                 7.1056                 1.5709
 Frc consts  --     5.4786                 5.2012                 1.3506
 IR Inten    --    30.8365                74.6578                31.1667
 Raman Activ --    94.1976               133.0694                25.9733

                    73                     74                     75
                     A                      A                      A
 Frequencies --  1226.5196              1285.9189              1320.7222
 Red. masses --     1.6574                 1.4252                 1.1211
 Frc consts  --     1.4690                 1.3885                 1.1522
 IR Inten    --    40.5009                61.6289               138.2478
 Raman Activ --   118.3232                41.9941               102.3239

                    76                     77                     78
                     A                      A                      A
 Frequencies --  1327.1591              1338.1454              1438.9603
 Red. masses --     1.2918                 1.1585                 1.2586
 Frc consts  --     1.3406                 1.2222                 1.5354
 IR Inten    --   177.7909                94.3513                81.3413
 Raman Activ --    14.4841                84.7678                41.2968

                    79                     80                     81
                     A                      A                      A
 Frequencies --  1499.5828              3320.7599              3368.0332
 Red. masses --     1.1556                 1.0682                 1.0659
 Frc consts  --     1.5311                 6.9400                 7.1238
 IR Inten    --     2.2107                94.1803                93.2084
 Raman Activ --    51.2378                 7.1099               866.4797

                    82                     83                     84
                     A                      A                      A
 Frequencies --  3391.5540              3392.4885              3399.7501
 Red. masses --     1.0672                 1.0649                 1.0678
 Frc consts  --     7.2327                 7.2213                 7.2715
 IR Inten    --   438.5764               110.6855               263.0772
 Raman Activ --   259.1854               184.3510               256.4723

                    85                     86                     87
                     A                      A                      A
 Frequencies --  3412.3061              3903.0543              3922.0424
 Red. masses --     1.0677                 1.0665                 1.0671
 Frc consts  --     7.3248                 9.5720                 9.6713
 IR Inten    --   190.9800                97.6084               401.9090
 Raman Activ --   248.8815               645.7604               486.3272

 - Thermochemistry -
 -------------------
 Temperature   298.150 Kelvin.  Pressure   1.00000 Atm.
 Atom     1 has atomic number  8 and mass  15.99491

 Molecular mass:   328.00666 amu.
 Principal axes and moments of inertia in atomic units:
                           1         2         3
     Eigenvalues --  4387.54745********************
           X            0.99999  -0.00392   0.00035
           Y            0.00392   0.99999  -0.00096
           Z           -0.00034   0.00096   1.00000
 This molecule is an asymmetric top.
 Rotational symmetry number  1.
 Warning -- assumption of classical behavior for rotation
           may cause significant error
 Rotational temperatures (Kelvin)      0.01974     0.00752     0.00558
 Rotational constants (GHZ):           0.41133     0.15666     0.11631
    4 imaginary frequencies ignored.
 Zero-point vibrational energy     467677.6 (Joules/Mol)
                                  111.77762 (Kcal/Mol)
 Warning -- explicit consideration of  35 degrees of freedom as
           vibrations may cause significant error
 Vibrational temperatures:     63.64    96.68   119.25   140.67   164.28
          (Kelvin)            191.54   216.09   234.02   257.55   273.90
                              299.45   320.23   345.74   387.09   404.70
                              411.03   438.45   445.42   450.87   458.99
                              489.81   509.87   520.53   587.27   601.79
                              632.38   660.86   684.41   710.37   730.04
                              761.84   782.44   797.77   866.79   872.44
                              897.98   949.32   965.24   988.68  1006.12
                             1027.05  1056.74  1107.20  1118.28  1134.30
                             1157.65  1191.47  1198.57  1230.78  1256.01
                             1264.62  1270.43  1305.82  1338.00  1361.98
                             1378.71  1411.59  1443.73  1444.99  1481.26
                             1502.98  1510.53  1520.43  1542.94  1558.20
                             1584.00  1603.70  1738.01  1764.69  1850.15
                             1900.22  1909.48  1925.29  2070.34  2157.56
                             4777.83  4845.84  4879.68  4881.03  4891.48
                             4909.54  5615.62  5642.94

 Zero-point correction=                           0.178129 (Hartree/Particle)
 Thermal correction to Energy=                    0.198423
 Thermal correction to Enthalpy=                  0.199367
 Thermal correction to Gibbs Free Energy=         0.131047
 Sum of electronic and zero-point Energies=          -1288.626825
 Sum of electronic and thermal Energies=             -1288.606531
 Sum of electronic and thermal Enthalpies=           -1288.605587
 Sum of electronic and thermal Free Energies=        -1288.673907

                     E (Thermal)             CV                S
                      KCal/Mol        Cal/Mol-Kelvin    Cal/Mol-Kelvin
 Total                  124.512             80.616            143.791
 Electronic               0.000              0.000              0.000
 Translational            0.889              2.981             43.259
 Rotational               0.889              2.981             35.016
 Vibrational            122.735             74.654             65.516
 Vibration     1          0.595              1.980              5.060
 Vibration     2          0.598              1.970              4.234
 Vibration     3          0.600              1.961              3.821
 Vibration     4          0.603              1.951              3.498
 Vibration     5          0.607              1.938              3.197
 Vibration     6          0.613              1.920              2.900
 Vibration     7          0.618              1.902              2.670
 Vibration     8          0.623              1.888              2.519
 Vibration     9          0.629              1.868              2.339
 Vibration    10          0.634              1.853              2.224
 Vibration    11          0.641              1.828              2.060
 Vibration    12          0.648              1.807              1.938
 Vibration    13          0.657              1.779              1.801
 Vibration    14          0.673              1.730              1.602
 Vibration    15          0.681              1.708              1.526
 Vibration    16          0.683              1.700              1.499
 Vibration    17          0.696              1.665              1.391
 Vibration    18          0.699              1.655              1.365
 Vibration    19          0.701              1.648              1.344
 Vibration    20          0.705              1.637              1.315
 Vibration    21          0.720              1.595              1.210
 Vibration    22          0.730              1.566              1.147
 Vibration    23          0.736              1.551              1.114
 Vibration    24          0.773              1.452              0.933
 Vibration    25          0.781              1.431              0.898
 Vibration    26          0.800              1.384              0.828
 Vibration    27          0.817              1.340              0.768
 Vibration    28          0.832              1.304              0.722
 Vibration    29          0.849              1.264              0.674
 Vibration    30          0.863              1.234              0.640
 Vibration    31          0.884              1.185              0.588
 Vibration    32          0.899              1.153              0.557
 Vibration    33          0.910              1.130              0.535
 Vibration    34          0.961              1.027              0.445
 Vibration    35          0.965              1.018              0.439

 Normal termination of Gaussian 09 at Sat Oct 17 22:00:57 2015.
