 Gaussian 09, Revision B.01,
 Gaussian 09:  EM64L-G09RevB.01 12-Aug-2010

 -------------------------------------------------
 # freq=raman b3lyp/6-31+g(2d,p) geom=connectivity
 -------------------------------------------------

 -----------------
 423 9000/9000.com
 -----------------
 Symbolic Z-matrix:
 Charge =  0 Multiplicity = 1

                         Standard orientation:
 ---------------------------------------------------------------------
 Center     Atomic      Atomic             Coordinates (Angstroms)
 Number     Number       Type             X           Y           Z
 ---------------------------------------------------------------------
      1          8           0        4.970112   -0.399312   -0.360589
      2          6           0        3.689965   -0.103859    0.215581
      3          6           0        3.170131    1.259831   -0.210686
      4          8           0        4.101369    2.302700    0.111934
      5          1           0        5.017666    1.953888   -0.083998
      6          6           0        1.793541    1.662421    0.291577
      7          8           0        1.300074    2.846810   -0.351772
      8          1           0        0.366788    2.988833   -0.023463
      9          6           0        3.008815   -2.604581    0.099948
     10          8           0        4.212186   -3.251183   -0.340452
     11          1           0        4.080948   -4.241945   -0.300699
     12          6           0        2.675686   -1.153836   -0.206987
     13          8           0        1.401026   -0.839417    0.371859
     14          6           0        0.990250    0.442045   -0.127223
     15          8           0       -0.246770    0.615257    0.580031
     16          6           0       -1.488165    0.147933    0.032819
     17          6           0       -2.016915   -1.185606    0.535360
     18          8           0       -1.049594   -2.193999    0.210118
     19          1           0       -0.144138   -1.772278    0.258261
     20          6           0       -3.268585   -1.496777   -0.269774
     21          8           0       -3.827376   -2.792010   -0.008115
     22          1           0       -4.762826   -2.841043   -0.360401
     23          6           0       -2.322796    2.585195   -0.334563
     24          8           0       -1.202226    3.344302    0.141625
     25          1           0       -1.358965    4.321679   -0.000090
     26          6           0       -2.527609    1.222788    0.306581
     27          8           0       -3.825959    0.831697   -0.165274
     28          6           0       -4.287615   -0.474803    0.208363
     29          8           0       -5.478115   -0.593457   -0.582586
     30          1           0       -6.221195   -0.804759   -0.012689
     31          1           0        5.576196   -0.675372    0.330825
     32          1           0        2.196642   -3.187432   -0.281576
     33          1           0        2.988455   -2.699444    1.165540
     34          1           0        2.569251   -1.075629   -1.268804
     35          1           0        3.779987   -0.120542    1.281657
     36          1           0        3.103189    1.232568   -1.278242
     37          1           0        1.792407    1.773034    1.355844
     38          1           0        0.829814    0.419493   -1.184887
     39          1           0       -3.208268    3.164113   -0.174276
     40          1           0       -2.203102    2.441770   -1.388130
     41          1           0       -2.586006    1.361152    1.365989
     42          1           0       -1.367307    0.070312   -1.027496
     43          1           0       -2.220621   -1.158617    1.585444
     44          1           0       -3.080716   -1.374126   -1.315987
     45          1           0       -4.486224   -0.551283    1.256984
 ---------------------------------------------------------------------

 SCF Done:  E(RB3LYP) =  -1297.99024489     A.U. after   13 cycles

 The electronic state is 1-A.
 Alpha  occ. eigenvalues --  -19.19413 -19.18950 -19.18019 -19.17342 -19.17186
 Alpha  occ. eigenvalues --  -19.17130 -19.16400 -19.15668 -19.14518 -19.13642
 Alpha  occ. eigenvalues --  -19.13400 -10.30440 -10.30331 -10.25712 -10.25681
 Alpha  occ. eigenvalues --  -10.25473 -10.25368 -10.25294 -10.24481 -10.24438
 Alpha  occ. eigenvalues --  -10.24310 -10.24298 -10.23816  -1.10553  -1.09050
 Alpha  occ. eigenvalues --   -1.05824  -1.05239  -1.03982  -1.03122  -1.02720
 Alpha  occ. eigenvalues --   -1.02337  -1.01655  -1.00462  -0.99779  -0.82169
 Alpha  occ. eigenvalues --   -0.80594  -0.79697  -0.78359  -0.72022  -0.70081
 Alpha  occ. eigenvalues --   -0.67332  -0.64242  -0.62962  -0.62558  -0.61772
 Alpha  occ. eigenvalues --   -0.60526  -0.56450  -0.55960  -0.55279  -0.54648
 Alpha  occ. eigenvalues --   -0.54166  -0.53412  -0.52788  -0.51687  -0.51370
 Alpha  occ. eigenvalues --   -0.50320  -0.49931  -0.49619  -0.48828  -0.46644
 Alpha  occ. eigenvalues --   -0.46168  -0.45250  -0.44532  -0.43438  -0.43313
 Alpha  occ. eigenvalues --   -0.42517  -0.41935  -0.40799  -0.40377  -0.39703
 Alpha  occ. eigenvalues --   -0.39267  -0.38024  -0.37616  -0.36096  -0.35703
 Alpha  occ. eigenvalues --   -0.34969  -0.34354  -0.34150  -0.33973  -0.33454
 Alpha  occ. eigenvalues --   -0.33007  -0.31480  -0.30833  -0.30090  -0.29814
 Alpha  occ. eigenvalues --   -0.29285  -0.28642  -0.28295  -0.27753  -0.26538
 Alpha  occ. eigenvalues --   -0.26405
 Alpha virt. eigenvalues --   -0.01903  -0.01878  -0.01850  -0.00292   0.00217
 Alpha virt. eigenvalues --    0.01143   0.01859   0.02231   0.03164   0.03761
 Alpha virt. eigenvalues --    0.03961   0.04103   0.04896   0.05354   0.05630

 Mulliken atomic charges:
              1
     1  O   -0.531743
     2  C    0.022285
     3  C    0.204856
     4  O   -0.572767
     5  H    0.340518
     6  C   -0.094612
     7  O   -0.576933
     8  H    0.438145
     9  C   -0.290499
    10  O   -0.531880
    11  H    0.342494
    12  C    0.123944
    13  O   -0.247687
    14  C    0.217424
    15  O   -0.256220
    16  C    0.244321
    17  C    0.103526
    18  O   -0.571536
    19  H    0.392971
    20  C    0.068983
    21  O   -0.552924
    22  H    0.340026
    23  C   -0.199874
    24  O   -0.574347
    25  H    0.361478
    26  C   -0.100562
    27  O   -0.241207
    28  C    0.173333
    29  O   -0.545741
    30  H    0.334884
    31  H    0.343081
    32  H    0.148309
    33  H    0.142601
    34  H    0.112093
    35  H    0.119156
    36  H    0.119132
    37  H    0.136988
    38  H    0.137026
    39  H    0.149880
    40  H    0.154203
    41  H    0.119619
    42  H    0.108626
    43  H    0.123471
    44  H    0.130126
    45  H    0.135035
 Sum of Mulliken atomic charges =   0.00000

 Dipole moment (field-independent basis, Debye):
    X=             -2.6222    Y=             -0.0772    Z=              1.7305  Tot=              3.1427
 Quadrupole moment (field-independent basis, Debye-Ang):
   XX=           -119.9985   YY=           -137.6676   ZZ=           -137.7813
   XY=            -17.7647   XZ=              0.6797   YZ=             -0.2165

  Exact polarizability: 233.286   1.361 198.855   0.483  -0.188 143.037
 Approx polarizability: 274.344   0.918 260.251  -0.210   0.425 238.316

 ******    7 imaginary frequencies (negative Signs) ******

                     1                      2                      3
                     A                      A                      A
 Frequencies --  -318.1290              -229.1644              -214.3574
 Red. masses --     1.6831                 1.8457                 1.1599
 Frc consts  --     0.1004                 0.0571                 0.0314
 IR Inten    --     6.1009                 2.5974                96.7925
 Raman Activ --     0.0782                 0.0412                 0.8313

                     4                      5                      6
                     A                      A                      A
 Frequencies --  -191.4910               -63.0655               -57.0352
 Red. masses --     1.2142                 6.5976                 6.5805
 Frc consts  --     0.0262                 0.0155                 0.0126
 IR Inten    --   110.9042                 0.8241                 0.4256
 Raman Activ --     0.8115                 0.0268                 0.0180

                     7                      8                      9
                     A                      A                      A
 Frequencies --   -19.1121                62.6742                79.0295
 Red. masses --     6.4951                 6.3808                 6.2181
 Frc consts  --     0.0014                 0.0148                 0.0229
 IR Inten    --     0.3124                 1.7343                 2.8338
 Raman Activ --     0.0205                 0.0591                 0.3589

                    10                     11                     12
                     A                      A                      A
 Frequencies --    84.8283               114.0798               124.7346
 Red. masses --     6.6541                 6.7331                 6.0064
 Frc consts  --     0.0282                 0.0516                 0.0551
 IR Inten    --     1.3673                 3.8302                 1.9491
 Raman Activ --     0.1011                 0.0554                 0.0819

                    13                     14                     15
                     A                      A                      A
 Frequencies --   161.4121               165.7264               186.4840
 Red. masses --     6.1134                 5.7118                 8.1197
 Frc consts  --     0.0938                 0.0924                 0.1664
 IR Inten    --     5.8766                 0.9454                 0.2306
 Raman Activ --     0.2112                 0.3298                 0.8656

                    16                     17                     18
                     A                      A                      A
 Frequencies --   217.8517               239.9547               273.4649
 Red. masses --     6.8488                 5.8174                 4.5871
 Frc consts  --     0.1915                 0.1974                 0.2021
 IR Inten    --     0.6875                 1.0567                12.6515
 Raman Activ --     2.7616                 0.3349                 0.5991

                    19                     20                     21
                     A                      A                      A
 Frequencies --   286.2671               293.8785               310.0265
 Red. masses --     4.5640                 5.4886                 4.9379
 Frc consts  --     0.2204                 0.2793                 0.2796
 IR Inten    --     2.1014                 0.2884                 1.8670
 Raman Activ --     0.1007                 0.1953                 0.4232

                    22                     23                     24
                     A                      A                      A
 Frequencies --   312.8350               317.4162               324.3216
 Red. masses --     5.4756                 6.0195                 5.8721
 Frc consts  --     0.3157                 0.3573                 0.3639
 IR Inten    --    14.1676                 2.1505                 2.2507
 Raman Activ --     0.8342                 4.6186                 2.1437

                    25                     26                     27
                     A                      A                      A
 Frequencies --   356.7418               363.9758               378.7673
 Red. masses --     5.7189                 4.6777                 5.6091
 Frc consts  --     0.4288                 0.3651                 0.4741
 IR Inten    --     3.6482                14.0698                 3.1556
 Raman Activ --     1.4928                 1.2029                 0.3976

                    28                     29                     30
                     A                      A                      A
 Frequencies --   402.4052               427.1961               438.0227
 Red. masses --     4.4862                 5.8922                 4.7758
 Frc consts  --     0.4280                 0.6336                 0.5399
 IR Inten    --    23.2203                 1.1029                 2.6928
 Raman Activ --     2.9248                 6.4682                 0.4296

                    31                     32                     33
                     A                      A                      A
 Frequencies --   445.9323               474.1270               495.2472
 Red. masses --     5.8196                 4.5586                 4.2664
 Frc consts  --     0.6818                 0.6038                 0.6165
 IR Inten    --     2.8199                 2.9305                12.3482
 Raman Activ --     3.5365                 5.4299                 0.1837

                    34                     35                     36
                     A                      A                      A
 Frequencies --   524.5820               532.5734               568.3796
 Red. masses --     4.2776                 3.1408                 4.4609
 Frc consts  --     0.6935                 0.5249                 0.8491
 IR Inten    --     8.4251                 7.1122                10.1578
 Raman Activ --     1.2234                 3.3407                 1.8610

                    37                     38                     39
                     A                      A                      A
 Frequencies --   591.8481               595.6940               620.0726
 Red. masses --     3.7873                 3.2488                 4.3571
 Frc consts  --     0.7816                 0.6792                 0.9870
 IR Inten    --    25.8742                18.8797                 2.1612
 Raman Activ --     0.4637                 0.4432                 0.3627

                    40                     41                     42
                     A                      A                      A
 Frequencies --   639.4947               688.1634               702.0613
 Red. masses --     4.8882                 1.0842                 5.0862
 Frc consts  --     1.1778                 0.3025                 1.4770
 IR Inten    --    38.7234               102.6799                19.7849
 Raman Activ --     1.3398                 1.7056                 1.9630

                    43                     44                     45
                     A                      A                      A
 Frequencies --   706.2240               748.4166               764.8034
 Red. masses --     1.0933                 1.0567                 1.0653
 Frc consts  --     0.3213                 0.3487                 0.3671
 IR Inten    --   106.8971                89.0341                91.2264
 Raman Activ --     1.9672                 1.7206                 1.6171

                    46                     47                     48
                     A                      A                      A
 Frequencies --   819.3642               843.3969               848.0575
 Red. masses --     1.0808                 1.7514                 1.4173
 Frc consts  --     0.4275                 0.7340                 0.6006
 IR Inten    --    51.0437                 4.9027                28.7744
 Raman Activ --     0.4923                 1.1554                 0.5468

                    49                     50                     51
                     A                      A                      A
 Frequencies --   876.1222               919.0307               949.5854
 Red. masses --     1.2582                 5.5718                 5.4287
 Frc consts  --     0.5690                 2.7727                 2.8841
 IR Inten    --    46.2398                89.2650                76.1030
 Raman Activ --     0.7373                 3.6667                 0.9129

                    52                     53                     54
                     A                      A                      A
 Frequencies --   968.3426               973.5110               980.6586
 Red. masses --     7.3855                 5.2706                 4.0636
 Frc consts  --     4.0802                 2.9430                 2.3025
 IR Inten    --    84.4295               122.4813                 9.1779
 Raman Activ --     2.3983                 1.0094                 0.8006

                    55                     56                     57
                     A                      A                      A
 Frequencies --   999.6057              1006.9523              1022.2238
 Red. masses --     5.4548                 6.0025                 5.6613
 Frc consts  --     3.2113                 3.5859                 3.4855
 IR Inten    --   338.1075                25.0583               117.6816
 Raman Activ --     3.1439                 3.9761                 1.4414

                    58                     59                     60
                     A                      A                      A
 Frequencies --  1037.7293              1052.1857              1060.4797
 Red. masses --     6.8449                 3.2784                 5.7261
 Frc consts  --     4.3429                 2.1385                 3.7942
 IR Inten    --   306.6070                44.0272               222.4532
 Raman Activ --     2.3642                 4.4751                 1.5871

                    61                     62                     63
                     A                      A                      A
 Frequencies --  1067.0415              1073.5974              1082.3568
 Red. masses --     3.1874                 2.5766                 4.8916
 Frc consts  --     2.1382                 1.7498                 3.3763
 IR Inten    --     4.5377                 4.1321                82.6196
 Raman Activ --     4.7287                31.8942                 1.0187

                    64                     65                     66
                     A                      A                      A
 Frequencies --  1086.1269              1089.2864              1097.2642
 Red. masses --     3.2724                 2.6424                 2.9796
 Frc consts  --     2.2745                 1.8473                 2.1136
 IR Inten    --    94.7764                92.9901                41.3514
 Raman Activ --     1.1355                 4.2442                 8.8556

                    67                     68                     69
                     A                      A                      A
 Frequencies --  1108.2876              1125.7267              1127.7663
 Red. masses --     3.2433                 1.9383                 2.9210
 Frc consts  --     2.3471                 1.4472                 2.1889
 IR Inten    --    16.6377                 8.0166                 5.7329
 Raman Activ --    18.4306                 3.0908                11.8645

                    70                     71                     72
                     A                      A                      A
 Frequencies --  1137.1902              1145.6374              1153.3594
 Red. masses --     2.5447                 2.1602                 2.5022
 Frc consts  --     1.9389                 1.6704                 1.9611
 IR Inten    --    13.0675                 4.4248                25.6041
 Raman Activ --     2.5633                 5.7404                 0.8419

                    73                     74                     75
                     A                      A                      A
 Frequencies --  1161.6969              1171.5047              1188.0009
 Red. masses --     1.9047                 1.7819                 2.0520
 Frc consts  --     1.5145                 1.4408                 1.7063
 IR Inten    --     5.1301                 3.5851                17.4434
 Raman Activ --     2.5004                 2.5436                 2.7652

                    76                     77                     78
                     A                      A                      A
 Frequencies --  1194.9228              1212.1999              1216.2049
 Red. masses --     1.4531                 1.3194                 1.2391
 Frc consts  --     1.2225                 1.1422                 1.0799
 IR Inten    --    12.3455                12.6783                 8.0386
 Raman Activ --     1.3066                 1.0566                 1.6863

                    79                     80                     81
                     A                      A                      A
 Frequencies --  1220.5618              1240.0190              1247.4795
 Red. masses --     1.2680                 1.2735                 1.2640
 Frc consts  --     1.1130                 1.1538                 1.1590
 IR Inten    --     7.6503                 6.8995                 9.8595
 Raman Activ --     1.8407                 1.4897                 0.9036

                    82                     83                     84
                     A                      A                      A
 Frequencies --  1266.1868              1267.7267              1275.0545
 Red. masses --     1.2402                 1.3877                 1.1660
 Frc consts  --     1.1714                 1.3140                 1.1168
 IR Inten    --    11.9689                51.6578                 2.6498
 Raman Activ --     2.7739                 2.5211                 3.1380

                    85                     86                     87
                     A                      A                      A
 Frequencies --  1284.9263              1291.9500              1304.7323
 Red. masses --     1.3642                 1.3162                 1.3271
 Frc consts  --     1.3270                 1.2943                 1.3311
 IR Inten    --    13.0523                45.5797                24.9002
 Raman Activ --     6.0867                 3.8509                 5.5698

                    88                     89                     90
                     A                      A                      A
 Frequencies --  1309.6894              1318.0953              1321.3231
 Red. masses --     1.3308                 1.2377                 1.1605
 Frc consts  --     1.3449                 1.2669                 1.1938
 IR Inten    --    12.3471                22.3959                 2.7332
 Raman Activ --     3.6735                 7.6834                 9.7975

                    91                     92                     93
                     A                      A                      A
 Frequencies --  1329.7837              1339.3222              1348.1957
 Red. masses --     1.3139                 1.1919                 1.2287
 Frc consts  --     1.3689                 1.2597                 1.3158
 IR Inten    --    31.4308                38.7469                38.5586
 Raman Activ --     3.3446                 0.4694                 2.2897

                    94                     95                     96
                     A                      A                      A
 Frequencies --  1358.6755              1365.7818              1371.5244
 Red. masses --     1.1747                 1.4641                 1.4490
 Frc consts  --     1.2776                 1.6091                 1.6059
 IR Inten    --    29.9734                 3.7287                10.3274
 Raman Activ --     1.6701                 6.8493                 5.5025

                    97                     98                     99
                     A                      A                      A
 Frequencies --  1383.5305              1387.0790              1397.0692
 Red. masses --     1.4141                 1.5196                 1.5689
 Frc consts  --     1.5948                 1.7226                 1.8042
 IR Inten    --     0.6399                 5.8512                 7.7733
 Raman Activ --     7.1059                 5.7226                 3.9826

                   100                    101                    102
                     A                      A                      A
 Frequencies --  1417.3355              1444.5130              1459.9980
 Red. masses --     1.5184                 1.4101                 1.4406
 Frc consts  --     1.7971                 1.7335                 1.8093
 IR Inten    --    32.1815                53.7590                18.5967
 Raman Activ --     0.4813                 1.2733                 0.4599

                   103                    104                    105
                     A                      A                      A
 Frequencies --  1466.2263              1474.3184              1475.1678
 Red. masses --     1.2130                 1.0755                 1.2138
 Frc consts  --     1.5364                 1.3774                 1.5562
 IR Inten    --    13.3793                 4.5294                 5.8127
 Raman Activ --     4.9259                 4.6573                 1.1177

                   106                    107                    108
                     A                      A                      A
 Frequencies --  1518.6729              1524.6115              3231.3675
 Red. masses --     1.2169                 1.1916                 1.0685
 Frc consts  --     1.6537                 1.6319                 6.5737
 IR Inten    --    50.8192                41.6225               934.3377
 Raman Activ --     0.7845                 2.1693               171.7780

                   109                    110                    111
                     A                      A                      A
 Frequencies --  3253.9076              3264.3193              3265.8918
 Red. masses --     1.0591                 1.0791                 1.0634
 Frc consts  --     6.6070                 6.7746                 6.6828
 IR Inten    --    21.3295                74.0907                31.4215
 Raman Activ --    81.2177                45.0846               193.7026

                   112                    113                    114
                     A                      A                      A
 Frequencies --  3267.3649              3270.6118              3276.4115
 Red. masses --     1.0803                 1.0795                 1.0791
 Frc consts  --     6.7947                 6.8033                 6.8252
 IR Inten    --     6.3417                 6.1517               319.7179
 Raman Activ --    91.9361                27.8858                77.7310

                   115                    116                    117
                     A                      A                      A
 Frequencies --  3283.1598              3287.6856              3290.8591
 Red. masses --     1.0789                 1.0871                 1.0828
 Frc consts  --     6.8517                 6.9232                 6.9089
 IR Inten    --   246.1958                12.5455               150.0693
 Raman Activ --    46.5376                 6.4129                47.0523

                   118                    119                    120
                     A                      A                      A
 Frequencies --  3292.5591              3296.2513              3304.6135
 Red. masses --     1.0852                 1.0832                 1.0988
 Frc consts  --     6.9313                 6.9340                 7.0696
 IR Inten    --     9.9578               143.9957                10.7597
 Raman Activ --   163.5225               101.8588                22.4025

                   121                    122                    123
                     A                      A                      A
 Frequencies --  3307.4063              3308.6999              3323.7636
 Red. masses --     1.0883                 1.0896                 1.1071
 Frc consts  --     7.0142                 7.0282                 7.2063
 IR Inten    --     4.6494               151.5785                40.6458
 Raman Activ --     3.0416                27.1427                40.2474

                   124                    125                    126
                     A                      A                      A
 Frequencies --  3354.5476              3365.0309              3366.2052
 Red. masses --     1.0656                 1.0654                 1.0677
 Frc consts  --     7.0652                 7.1077                 7.1281
 IR Inten    --    41.5045                24.7661                59.1755
 Raman Activ --   129.6870                94.9070               178.9471

                   127                    128                    129
                     A                      A                      A
 Frequencies --  3374.3189              3890.3259              3891.4061
 Red. masses --     1.0676                 1.0674                 1.0676
 Frc consts  --     7.1619                 9.5179                 9.5251
 IR Inten    --    64.0441                73.0445                78.5103
 Raman Activ --   156.0148               116.8235                92.5689

 - Thermochemistry -
 -------------------
 Temperature   298.150 Kelvin.  Pressure   1.00000 Atm.
 Atom     1 has atomic number  8 and mass  15.99491

 Molecular mass:   342.11621 amu.
 Principal axes and moments of inertia in atomic units:
                           1         2         3
     Eigenvalues --  4487.10627********************
           X            0.99996  -0.00840   0.00009
           Y            0.00840   0.99996  -0.00188
           Z           -0.00007   0.00188   1.00000
 This molecule is an asymmetric top.
 Rotational symmetry number  1.
 Warning -- assumption of classical behavior for rotation
           may cause significant error
 Rotational temperatures (Kelvin)      0.01930     0.00716     0.00534
 Rotational constants (GHZ):           0.40221     0.14919     0.11130
    7 imaginary frequencies ignored.
 Zero-point vibrational energy     974905.0 (Joules/Mol)
                                  233.00788 (Kcal/Mol)
 Warning -- explicit consideration of  32 degrees of freedom as
           vibrations may cause significant error
 Vibrational temperatures:     90.17   113.71   122.05   164.14   179.47
          (Kelvin)            232.24   238.44   268.31   313.44   345.24
                              393.45   411.87   422.83   446.06   450.10
                              456.69   466.63   513.27   523.68   544.96
                              578.97   614.64   630.22   641.60   682.16
                              712.55   754.76   766.25   817.77   851.54
                              857.07   892.15   920.09   990.11  1010.11
                             1016.10  1076.80  1100.38  1178.88  1213.46
                             1220.16  1260.54  1322.28  1366.24  1393.23
                             1400.66  1410.95  1438.21  1448.78  1470.75
                             1493.06  1513.86  1525.79  1535.23  1544.67
                             1557.27  1562.69  1567.24  1578.72  1594.58
                             1619.67  1622.60  1636.16  1648.31  1659.42
                             1671.42  1685.53  1709.27  1719.23  1744.08
                             1749.85  1756.11  1784.11  1794.84  1821.76
                             1823.97  1834.52  1848.72  1858.83  1877.22
                             1884.35  1896.44  1901.09  1913.26  1926.98
                             1939.75  1954.83  1965.05  1973.32  1990.59
                             1995.69  2010.07  2039.23  2078.33  2100.61
                             2109.57  2121.21  2122.43  2185.03  2193.57
                             4649.21  4681.64  4696.62  4698.88  4701.00
                             4705.68  4714.02  4723.73  4730.24  4734.81
                             4737.25  4742.56  4754.60  4758.61  4760.48
                             4782.15  4826.44  4841.52  4843.21  4854.89
                             5597.30  5598.86

 Zero-point correction=                           0.371322 (Hartree/Particle)
 Thermal correction to Energy=                    0.389381
 Thermal correction to Enthalpy=                  0.390325
 Thermal correction to Gibbs Free Energy=         0.326627
 Sum of electronic and zero-point Energies=          -1297.618923
 Sum of electronic and thermal Energies=             -1297.600864
 Sum of electronic and thermal Enthalpies=           -1297.599919
 Sum of electronic and thermal Free Energies=        -1297.663618

                     E (Thermal)             CV                S
                      KCal/Mol        Cal/Mol-Kelvin    Cal/Mol-Kelvin
 Total                  244.340             75.627            134.064
 Electronic               0.000              0.000              0.000
 Translational            0.889              2.981             43.384
 Rotational               0.889              2.981             35.130
 Vibrational            242.563             69.665             55.549
 Vibration     1          0.597              1.972              4.371
 Vibration     2          0.600              1.963              3.915
 Vibration     3          0.601              1.960              3.776
 Vibration     4          0.607              1.938              3.198
 Vibration     5          0.610              1.928              3.026
 Vibration     6          0.622              1.890              2.533
 Vibration     7          0.624              1.885              2.483
 Vibration     8          0.632              1.858              2.263
 Vibration     9          0.646              1.814              1.977
 Vibration    10          0.657              1.779              1.803
 Vibration    11          0.676              1.722              1.574
 Vibration    12          0.684              1.699              1.496
 Vibration    13          0.689              1.685              1.452
 Vibration    14          0.699              1.655              1.362
 Vibration    15          0.701              1.649              1.347
 Vibration    16          0.704              1.640              1.323
 Vibration    17          0.709              1.627              1.288
 Vibration    18          0.732              1.561              1.136
 Vibration    19          0.738              1.546              1.105
 Vibration    20          0.749              1.515              1.044
 Vibration    21          0.768              1.465              0.954
 Vibration    22          0.789              1.411              0.868
 Vibration    23          0.798              1.387              0.833
 Vibration    24          0.805              1.370              0.808
 Vibration    25          0.831              1.307              0.726
 Vibration    26          0.851              1.261              0.670
 Vibration    27          0.880              1.196              0.599
 Vibration    28          0.888              1.178              0.581
 Vibration    29          0.924              1.100              0.507
 Vibration    30          0.949              1.049              0.464
 Vibration    31          0.953              1.041              0.457
 Vibration    32          0.980              0.990              0.416

 Normal termination of Gaussian 09 at Sun Mar 27 18:04:55 2016.
