 Gaussian 09, Revision B.01,
 Gaussian 09:  EM64L-G09RevB.01 12-Aug-2010

 ------------------------------------------------
 # freq=raman b3lyp/6-31+g(d,p) geom=connectivity
 ------------------------------------------------

 ------------
 350 7000.com
 ------------
 Symbolic Z-matrix:
 Charge =  0 Multiplicity = 1

                         Standard orientation:
 ---------------------------------------------------------------------
 Center     Atomic      Atomic             Coordinates (Angstroms)
 Number     Number       Type             X           Y           Z
 ---------------------------------------------------------------------
      1          8           0        5.052509   -0.391726   -0.217295
      2          6           0        3.724465   -0.117007    0.248105
      3          6           0        3.170942    1.205888   -0.256891
      4          8           0        4.187320    2.216168   -0.200059
      5          1           0        5.081620    1.769225   -0.176483
      6          6           0        1.799357    1.702261    0.170319
      7          8           0        1.392588    2.772168   -0.695556
      8          1           0        0.513237    3.011261   -0.285052
      9          6           0        2.958140   -2.614589    0.282271
     10          8           0        4.058160   -3.295883   -0.337967
     11          1           0        3.888544   -4.278350   -0.255527
     12          6           0        2.729033   -1.183908   -0.176895
     13          8           0        1.484154   -0.794361    0.421977
     14          6           0        1.002837    0.441178   -0.125020
     15          8           0       -0.298057    0.531642    0.472434
     16          6           0       -1.479750    0.132048   -0.236139
     17          6           0       -2.016405   -1.180861    0.309513
     18          8           0       -1.097624   -2.279437    0.214534
     19          1           0       -0.299724   -1.860285    0.647001
     20          6           0       -3.376032   -1.484129   -0.298553
     21          8           0       -4.019833   -2.558752    0.401106
     22          1           0       -4.721266   -2.989045   -0.167273
     23          6           0       -2.205849    2.636760    0.136253
     24          8           0       -1.093342    3.249961    0.801999
     25          1           0       -1.228126    4.231123    0.942763
     26          6           0       -2.541825    1.154721    0.137361
     27          8           0       -3.838614    1.017420   -0.461899
     28          6           0       -4.289198   -0.289531   -0.076522
     29          8           0       -5.528589   -0.621722   -0.719699
     30          1           0       -6.178155   -0.865504   -0.056198
     31          1           0       -4.485644   -0.245288    0.974360
     32          1           0       -3.287649   -1.706954   -1.341356
     33          1           0       -2.184030   -1.023743    1.354556
     34          1           0       -1.320153    0.091898   -1.293408
     35          1           0       -2.719602    0.942331    1.170892
     36          1           0       -3.077099    3.131957    0.511224
     37          1           0       -2.115753    2.912971   -0.893548
     38          1           0        5.614191   -0.611725    0.529508
     39          1           0        2.066875   -3.174186    0.088886
     40          1           0        3.125268   -2.603456    1.339080
     41          1           0        2.628665   -1.167664   -1.242054
     42          1           0        3.745695   -0.085048    1.317417
     43          1           0        3.045749    1.031871   -1.305196
     44          1           0        1.768289    1.971546    1.205414
     45          1           0        0.895404    0.336254   -1.184429
 ---------------------------------------------------------------------

 SCF Done:  E(RB3LYP) =  -1297.92156572     A.U. after   13 cycles

 The electronic state is 1-A.
 Alpha  occ. eigenvalues --  -19.19578 -19.19363 -19.19301 -19.18573 -19.18429
 Alpha  occ. eigenvalues --  -19.18366 -19.17632 -19.17148 -19.16209 -19.15787
 Alpha  occ. eigenvalues --  -19.14913 -10.30985 -10.30808 -10.26544 -10.26518
 Alpha  occ. eigenvalues --  -10.25937 -10.25827 -10.25781 -10.25602 -10.25401
 Alpha  occ. eigenvalues --  -10.24852 -10.24590 -10.24265  -1.10180  -1.09251
 Alpha  occ. eigenvalues --   -1.05795  -1.05040  -1.04377  -1.04124  -1.03071
 Alpha  occ. eigenvalues --   -1.02708  -1.02580  -1.01484  -1.00432  -0.83117
 Alpha  occ. eigenvalues --   -0.80632  -0.79538  -0.78642  -0.72302  -0.70635
 Alpha  occ. eigenvalues --   -0.67275  -0.64418  -0.63140  -0.62490  -0.61924
 Alpha  occ. eigenvalues --   -0.60908  -0.56395  -0.55713  -0.55297  -0.54883
 Alpha  occ. eigenvalues --   -0.54251  -0.53551  -0.52998  -0.52288  -0.51418
 Alpha  occ. eigenvalues --   -0.50456  -0.50002  -0.49585  -0.49030  -0.46947
 Alpha  occ. eigenvalues --   -0.46147  -0.45148  -0.44509  -0.43764  -0.43490
 Alpha  occ. eigenvalues --   -0.43178  -0.42671  -0.41378  -0.40838  -0.39605
 Alpha  occ. eigenvalues --   -0.38903  -0.37603  -0.37117  -0.36507  -0.35928
 Alpha  occ. eigenvalues --   -0.35509  -0.35341  -0.34787  -0.34278  -0.33697
 Alpha  occ. eigenvalues --   -0.32511  -0.31980  -0.31415  -0.30477  -0.30114
 Alpha  occ. eigenvalues --   -0.29794  -0.29024  -0.28756  -0.28176  -0.26991
 Alpha  occ. eigenvalues --   -0.26366
 Alpha virt. eigenvalues --   -0.02264  -0.02011  -0.01636  -0.00424   0.00064
 Alpha virt. eigenvalues --    0.00830   0.01594   0.02357   0.02921   0.03317
 Alpha virt. eigenvalues --    0.03705   0.04203   0.04963   0.05014   0.05494

 Mulliken atomic charges:
              1
     1  O   -0.532430
     2  C   -0.110549
     3  C    0.066172
     4  O   -0.522002
     5  H    0.361668
     6  C    0.055245
     7  O   -0.503728
     8  H    0.407767
     9  C   -0.082804
    10  O   -0.529253
    11  H    0.355935
    12  C    0.136638
    13  O   -0.386222
    14  C    0.124804
    15  O   -0.354324
    16  C    0.059205
    17  C   -0.222259
    18  O   -0.470018
    19  H    0.383516
    20  C    0.240726
    21  O   -0.533970
    22  H    0.363993
    23  C   -0.155981
    24  O   -0.626256
    25  H    0.395531
    26  C    0.214016
    27  O   -0.325885
    28  C    0.117913
    29  O   -0.584994
    30  H    0.375704
    31  H    0.128722
    32  H    0.152888
    33  H    0.139765
    34  H    0.138371
    35  H    0.120415
    36  H    0.140042
    37  H    0.144862
    38  H    0.372471
    39  H    0.144229
    40  H    0.132090
    41  H    0.134710
    42  H    0.134208
    43  H    0.121837
    44  H    0.152244
    45  H    0.124988
 Sum of Mulliken atomic charges =   0.00000

 Dipole moment (field-independent basis, Debye):
    X=             -2.2858    Y=             -1.0995    Z=              2.9438  Tot=              3.8858
 Quadrupole moment (field-independent basis, Debye-Ang):
   XX=           -128.7270   YY=           -132.6185   ZZ=           -140.4269
   XY=            -13.1265   XZ=              6.0524   YZ=              6.5728

  Exact polarizability: 224.675   1.802 193.695   1.551   0.488 141.431
 Approx polarizability: 261.701   1.831 250.055   1.203   0.057 232.028

 ******    6 imaginary frequencies (negative Signs) ******

                     1                      2                      3
                     A                      A                      A
 Frequencies --  -334.1458              -307.9792              -270.1854
 Red. masses --     1.6710                 1.1637                 1.4110
 Frc consts  --     0.1099                 0.0650                 0.0607
 IR Inten    --     5.3939               155.2440                71.9189
 Raman Activ --     0.0795                 1.2225                 0.5565

                     4                      5                      6
                     A                      A                      A
 Frequencies --  -234.9039               -69.2961               -65.6300
 Red. masses --     1.4391                 6.6615                 6.5812
 Frc consts  --     0.0468                 0.0188                 0.0167
 IR Inten    --    42.5689                 0.7289                 0.1405
 Raman Activ --     0.5280                 0.0336                 0.0214

                     7                      8                      9
                     A                      A                      A
 Frequencies --    38.1131                62.6718                63.0077
 Red. masses --     6.9805                 6.3847                 5.9961
 Frc consts  --     0.0060                 0.0148                 0.0140
 IR Inten    --     0.1560                 3.2601                 3.8322
 Raman Activ --     0.0778                 0.1554                 0.1208

                    10                     11                     12
                     A                      A                      A
 Frequencies --    96.8575               109.1950               135.6547
 Red. masses --     6.4457                 6.4612                 5.5744
 Frc consts  --     0.0356                 0.0454                 0.0604
 IR Inten    --     0.8227                 1.0970                 0.9559
 Raman Activ --     0.2376                 0.0857                 0.0228

                    13                     14                     15
                     A                      A                      A
 Frequencies --   138.4588               170.6080               177.8172
 Red. masses --     6.2916                 6.8690                 7.0342
 Frc consts  --     0.0711                 0.1178                 0.1310
 IR Inten    --     3.0961                 0.1219                 1.6747
 Raman Activ --     0.2786                 0.3253                 1.5674

                    16                     17                     18
                     A                      A                      A
 Frequencies --   197.5872               228.2376               255.8515
 Red. masses --     5.5323                 6.4159                 4.5741
 Frc consts  --     0.1273                 0.1969                 0.1764
 IR Inten    --     2.2538                 2.3228                10.1959
 Raman Activ --     0.0918                 1.1021                 0.6751

                    19                     20                     21
                     A                      A                      A
 Frequencies --   284.7199               297.9158               304.4481
 Red. masses --     5.8898                 4.3970                 5.7858
 Frc consts  --     0.2813                 0.2299                 0.3160
 IR Inten    --     2.6441                 5.4003                 3.0173
 Raman Activ --     0.3454                 0.5047                 1.3838

                    22                     23                     24
                     A                      A                      A
 Frequencies --   312.0418               321.8039               332.2980
 Red. masses --     5.0830                 6.0481                 5.3512
 Frc consts  --     0.2916                 0.3690                 0.3481
 IR Inten    --     0.1202                 1.3517                 7.1121
 Raman Activ --     0.8050                 1.8676                 0.6279

                    25                     26                     27
                     A                      A                      A
 Frequencies --   336.2414               348.2812               367.5880
 Red. masses --     5.7437                 5.9131                 5.9777
 Frc consts  --     0.3826                 0.4226                 0.4759
 IR Inten    --     2.6858                 8.2661                 0.6695
 Raman Activ --     3.9784                 1.6318                 1.5014

                    28                     29                     30
                     A                      A                      A
 Frequencies --   393.4978               416.0124               422.8760
 Red. masses --     4.4885                 5.7379                 5.1409
 Frc consts  --     0.4095                 0.5851                 0.5416
 IR Inten    --    14.9027                 5.9992                 2.2327
 Raman Activ --     2.5174                 3.0200                 4.9088

                    31                     32                     33
                     A                      A                      A
 Frequencies --   442.4642               478.4905               489.9853
 Red. masses --     5.5700                 4.1465                 4.4009
 Frc consts  --     0.6425                 0.5593                 0.6225
 IR Inten    --     0.7231                 6.7512                17.6690
 Raman Activ --     3.1753                 5.2539                 0.2807

                    34                     35                     36
                     A                      A                      A
 Frequencies --   514.3300               531.2378               563.1776
 Red. masses --     4.2461                 3.3818                 3.5984
 Frc consts  --     0.6618                 0.5623                 0.6724
 IR Inten    --     6.3698                13.7341                10.0462
 Raman Activ --     2.9567                 2.8739                 0.8731

                    37                     38                     39
                     A                      A                      A
 Frequencies --   576.8131               591.0398               604.0585
 Red. masses --     3.5234                 5.1412                 4.8164
 Frc consts  --     0.6907                 1.0581                 1.0354
 IR Inten    --    23.8964                14.8006                25.5634
 Raman Activ --     0.3488                 1.1974                 0.4292

                    40                     41                     42
                     A                      A                      A
 Frequencies --   610.8962               685.9019               687.4327
 Red. masses --     3.9227                 1.2230                 2.6119
 Frc consts  --     0.8625                 0.3390                 0.7272
 IR Inten    --    29.2081                82.2318                69.0257
 Raman Activ --     0.7399                 1.6508                 0.7711

                    43                     44                     45
                     A                      A                      A
 Frequencies --   696.8591               714.2051               719.7714
 Red. masses --     1.1411                 1.0869                 1.0832
 Frc consts  --     0.3265                 0.3267                 0.3306
 IR Inten    --    81.3109                68.8749               110.7391
 Raman Activ --     1.7867                 1.6628                 1.5502

                    46                     47                     48
                     A                      A                      A
 Frequencies --   782.8531               844.6904               849.8194
 Red. masses --     1.1108                 1.4643                 1.7471
 Frc consts  --     0.4011                 0.6156                 0.7434
 IR Inten    --   144.2078                29.8554                 2.1369
 Raman Activ --     3.8805                 0.7173                 0.6955

                    49                     50                     51
                     A                      A                      A
 Frequencies --   869.7083               934.2719               971.8791
 Red. masses --     1.3378                 5.1458                 3.5162
 Frc consts  --     0.5962                 2.6464                 1.9568
 IR Inten    --    42.3439                36.8405                69.9841
 Raman Activ --     0.7663                 1.7351                 2.0371

                    52                     53                     54
                     A                      A                      A
 Frequencies --   985.0821               995.2688               999.3666
 Red. masses --     6.0337                 4.6431                 5.7712
 Frc consts  --     3.4497                 2.7098                 3.3960
 IR Inten    --    24.1044                65.4947                73.6353
 Raman Activ --     1.6154                 0.5368                 1.8949

                    55                     56                     57
                     A                      A                      A
 Frequencies --  1014.2986              1023.0540              1027.8712
 Red. masses --     4.9225                 4.4633                 5.1099
 Frc consts  --     2.9838                 2.7524                 3.1808
 IR Inten    --   117.3695               422.7066               115.9448
 Raman Activ --     0.6102                 3.6934                 3.9765

                    58                     59                     60
                     A                      A                      A
 Frequencies --  1051.9667              1056.4096              1069.3473
 Red. masses --     7.5547                 4.3876                 4.7668
 Frc consts  --     4.9257                 2.8850                 3.2115
 IR Inten    --   421.5221               107.9109                87.8433
 Raman Activ --     2.9494                 2.6082                 4.2467

                    61                     62                     63
                     A                      A                      A
 Frequencies --  1070.3168              1084.6509              1093.0740
 Red. masses --     2.9016                 3.7559                 2.7668
 Frc consts  --     1.9584                 2.6034                 1.9477
 IR Inten    --    84.6449                23.6242                11.3335
 Raman Activ --     8.2203                 5.8347                 9.6863

                    64                     65                     66
                     A                      A                      A
 Frequencies --  1099.4486              1103.1849              1117.9633
 Red. masses --     3.8186                 2.8070                 2.8888
 Frc consts  --     2.7196                 2.0127                 2.1272
 IR Inten    --    33.9451                66.8808                56.8016
 Raman Activ --     9.7138                 4.4628                12.0808

                    67                     68                     69
                     A                      A                      A
 Frequencies --  1129.1601              1136.0181              1141.1200
 Red. masses --     2.1460                 2.5108                 3.3205
 Frc consts  --     1.6121                 1.9091                 2.5475
 IR Inten    --    67.3468                 0.6380                11.2146
 Raman Activ --     3.2116                 5.7191                12.1846

                    70                     71                     72
                     A                      A                      A
 Frequencies --  1152.0765              1156.1259              1163.4314
 Red. masses --     1.7669                 2.0041                 2.2631
 Frc consts  --     1.3817                 1.5783                 1.8048
 IR Inten    --    14.1629                 1.2704                22.1573
 Raman Activ --     2.8583                 2.5204                 0.4432

                    73                     74                     75
                     A                      A                      A
 Frequencies --  1165.4851              1179.6873              1206.6446
 Red. masses --     2.1590                 2.0457                 1.6604
 Frc consts  --     1.7279                 1.6773                 1.4243
 IR Inten    --     1.5719                14.4506                11.1150
 Raman Activ --     2.0981                 3.1425                 3.7313

                    76                     77                     78
                     A                      A                      A
 Frequencies --  1209.9362              1220.4602              1231.5105
 Red. masses --     1.8486                 1.3989                 1.4515
 Frc consts  --     1.5944                 1.2277                 1.2970
 IR Inten    --    29.9548                16.1128                18.7420
 Raman Activ --     3.6381                 2.8538                 2.2670

                    79                     80                     81
                     A                      A                      A
 Frequencies --  1249.1829              1252.4841              1270.6445
 Red. masses --     1.2626                 1.5210                 1.2879
 Frc consts  --     1.1608                 1.4058                 1.2251
 IR Inten    --     6.9240                28.0060                32.5069
 Raman Activ --     1.4774                 3.4575                 1.8254

                    82                     83                     84
                     A                      A                      A
 Frequencies --  1276.5509              1283.7867              1287.5911
 Red. masses --     1.3235                 1.2745                 1.3244
 Frc consts  --     1.2708                 1.2376                 1.2937
 IR Inten    --    17.2894                 6.1535                10.2792
 Raman Activ --     3.4090                 4.0408                 2.1864

                    85                     86                     87
                     A                      A                      A
 Frequencies --  1306.6858              1314.2375              1322.7095
 Red. masses --     1.3648                 1.1732                 1.2753
 Frc consts  --     1.3730                 1.1939                 1.3146
 IR Inten    --    45.1088                25.4811                13.3527
 Raman Activ --     3.3164                 5.4185                 2.4285

                    88                     89                     90
                     A                      A                      A
 Frequencies --  1335.4607              1342.6722              1345.5139
 Red. masses --     1.2877                 1.2181                 1.2373
 Frc consts  --     1.3531                 1.2938                 1.3198
 IR Inten    --    47.9254                31.9793                 7.8084
 Raman Activ --     6.3133                 2.6439                 8.2731

                    91                     92                     93
                     A                      A                      A
 Frequencies --  1350.3175              1368.7289              1377.0677
 Red. masses --     1.2853                 1.3709                 1.3392
 Frc consts  --     1.3808                 1.5132                 1.4962
 IR Inten    --    27.5410                12.4726                 1.6864
 Raman Activ --     3.4247                 4.6793                16.1275

                    94                     95                     96
                     A                      A                      A
 Frequencies --  1378.4008              1384.6778              1393.8695
 Red. masses --     1.4750                 1.2739                 1.1617
 Frc consts  --     1.6512                 1.4391                 1.3298
 IR Inten    --     9.9705                25.6926                25.4722
 Raman Activ --     2.6588                 3.8653                 1.9536

                    97                     98                     99
                     A                      A                      A
 Frequencies --  1396.7263              1401.6699              1412.7513
 Red. masses --     1.4325                 1.2411                 1.3708
 Frc consts  --     1.6466                 1.4367                 1.6120
 IR Inten    --     5.8250                11.2048                25.8040
 Raman Activ --     6.3887                 2.1253                 1.2569

                   100                    101                    102
                     A                      A                      A
 Frequencies --  1434.9658              1444.6751              1454.9999
 Red. masses --     1.2422                 1.4921                 1.3925
 Frc consts  --     1.5071                 1.8348                 1.7369
 IR Inten    --     4.6874                38.0161                 8.5888
 Raman Activ --     4.6913                 1.1772                 0.4974

                   103                    104                    105
                     A                      A                      A
 Frequencies --  1461.4240              1480.2114              1480.2200
 Red. masses --     1.4507                 1.0902                 1.0922
 Frc consts  --     1.8255                 1.4074                 1.4100
 IR Inten    --    11.2422                 0.1220                 8.3655
 Raman Activ --     1.7000                 2.4748                 6.4881

                   106                    107                    108
                     A                      A                      A
 Frequencies --  1504.8977              1524.6212              3251.5889
 Red. masses --     1.2498                 1.2900                 1.0805
 Frc consts  --     1.6677                 1.7667                 6.7305
 IR Inten    --    27.1432                41.5570                 4.6188
 Raman Activ --     1.0276                 1.6174                41.7409

                   109                    110                    111
                     A                      A                      A
 Frequencies --  3259.4265              3267.6652              3268.2807
 Red. masses --     1.0808                 1.0610                 1.0575
 Frc consts  --     6.7649                 6.6747                 6.6553
 IR Inten    --    18.0215                62.2059                31.0884
 Raman Activ --    46.9482                71.6380                98.7741

                   112                    113                    114
                     A                      A                      A
 Frequencies --  3280.8039              3288.2576              3290.1680
 Red. masses --     1.0841                 1.0835                 1.0840
 Frc consts  --     6.8752                 6.9024                 6.9139
 IR Inten    --     3.8067                30.6149                 6.1134
 Raman Activ --     1.6332               158.1967                87.9113

                   115                    116                    117
                     A                      A                      A
 Frequencies --  3299.9037              3304.6639              3309.8099
 Red. masses --     1.0861                 1.0865                 1.0862
 Frc consts  --     6.9683                 6.9909                 7.0109
 IR Inten    --     0.9326                35.0309                 4.3979
 Raman Activ --    27.8336                51.7129                12.1126

                   118                    119                    120
                     A                      A                      A
 Frequencies --  3318.0171              3320.5236              3323.3730
 Red. masses --     1.0980                 1.0928                 1.0869
 Frc consts  --     7.1219                 7.0994                 7.0731
 IR Inten    --     8.4845                77.2719                32.8291
 Raman Activ --    45.0029                47.9895                56.7305

                   121                    122                    123
                     A                      A                      A
 Frequencies --  3327.6841              3334.8654              3372.4678
 Red. masses --     1.1059                 1.0679                 1.0654
 Frc consts  --     7.2150                 6.9973                 7.1390
 IR Inten    --    53.8173               399.5272               244.5409
 Raman Activ --    29.3093               187.6391               116.8379

                   124                    125                    126
                     A                      A                      A
 Frequencies --  3376.5035              3385.7115              3389.3571
 Red. masses --     1.0656                 1.0678                 1.0678
 Frc consts  --     7.1577                 7.2119                 7.2275
 IR Inten    --    48.0817                38.2470                72.2758
 Raman Activ --    95.7001               155.2901               151.5614

                   127                    128                    129
                     A                      A                      A
 Frequencies --  3394.7170              3919.7525              3920.7403
 Red. masses --     1.0672                 1.0678                 1.0676
 Frc consts  --     7.2464                 9.6666                 9.6693
 IR Inten    --    45.6197                89.3090                76.3560
 Raman Activ --   164.3409                79.2959                98.5342

 - Thermochemistry -
 -------------------
 Temperature   298.150 Kelvin.  Pressure   1.00000 Atm.
 Atom     1 has atomic number  8 and mass  15.99491

 Molecular mass:   342.11621 amu.
 Principal axes and moments of inertia in atomic units:
                           1         2         3
     Eigenvalues --  4457.06177********************
           X            0.99998  -0.00691  -0.00007
           Y            0.00691   0.99997   0.00159
           Z            0.00006  -0.00159   1.00000
 This molecule is an asymmetric top.
 Rotational symmetry number  1.
 Warning -- assumption of classical behavior for rotation
           may cause significant error
 Rotational temperatures (Kelvin)      0.01943     0.00702     0.00531
 Rotational constants (GHZ):           0.40492     0.14624     0.11072
    6 imaginary frequencies ignored.
 Zero-point vibrational energy     980319.7 (Joules/Mol)
                                  234.30203 (Kcal/Mol)
 Warning -- explicit consideration of  34 degrees of freedom as
           vibrations may cause significant error
 Vibrational temperatures:     54.84    90.17    90.65   139.36   157.11
          (Kelvin)            195.18   199.21   245.47   255.84   284.28
                              328.38   368.11   409.65   428.63   438.03
                              448.96   463.00   478.10   483.78   501.10
                              528.88   566.15   598.55   608.42   636.61
                              688.44   704.98   740.01   764.33   810.29
                              829.90   850.37   869.10   878.94   986.86
                              989.06  1002.62  1027.58  1035.59  1126.35
                             1215.32  1222.70  1251.31  1344.21  1398.32
                             1417.31  1431.97  1437.86  1459.35  1471.94
                             1478.88  1513.54  1519.94  1538.55  1539.95
                             1560.57  1572.69  1581.86  1587.24  1608.50
                             1624.61  1634.47  1641.82  1657.58  1663.41
                             1673.92  1676.87  1697.30  1736.09  1740.83
                             1755.97  1771.87  1797.29  1802.04  1828.17
                             1836.67  1847.08  1852.55  1880.03  1890.89
                             1903.08  1921.43  1931.80  1935.89  1942.80
                             1969.29  1981.29  1983.21  1992.24  2005.46
                             2009.58  2016.69  2032.63  2064.59  2078.56
                             2093.42  2102.66  2129.69  2129.70  2165.21
                             2193.59  4678.31  4689.58  4701.44  4702.32
                             4720.34  4731.06  4733.81  4747.82  4754.67
                             4762.07  4773.88  4777.49  4781.59  4787.79
                             4798.12  4852.22  4858.03  4871.28  4876.52
                             4884.23  5639.64  5641.06

 Zero-point correction=                           0.373384 (Hartree/Particle)
 Thermal correction to Energy=                    0.392534
 Thermal correction to Enthalpy=                  0.393478
 Thermal correction to Gibbs Free Energy=         0.326631
 Sum of electronic and zero-point Energies=          -1297.548182
 Sum of electronic and thermal Energies=             -1297.529032
 Sum of electronic and thermal Enthalpies=           -1297.528088
 Sum of electronic and thermal Free Energies=        -1297.594934

                     E (Thermal)             CV                S
                      KCal/Mol        Cal/Mol-Kelvin    Cal/Mol-Kelvin
 Total                  246.319             77.767            140.690
 Electronic               0.000              0.000              0.000
 Translational            0.889              2.981             43.384
 Rotational               0.889              2.981             35.149
 Vibrational            244.541             71.805             62.157
 Vibration     1          0.594              1.982              5.355
 Vibration     2          0.597              1.972              4.371
 Vibration     3          0.597              1.972              4.361
 Vibration     4          0.603              1.951              3.517
 Vibration     5          0.606              1.942              3.283
 Vibration     6          0.613              1.918              2.864
 Vibration     7          0.614              1.915              2.825
 Vibration     8          0.626              1.879              2.429
 Vibration     9          0.628              1.870              2.351
 Vibration    10          0.637              1.843              2.155
 Vibration    11          0.651              1.798              1.893
 Vibration    12          0.666              1.753              1.690
 Vibration    13          0.683              1.702              1.505
 Vibration    14          0.691              1.678              1.429
 Vibration    15          0.695              1.665              1.392
 Vibration    16          0.700              1.651              1.351
 Vibration    17          0.707              1.632              1.301
 Vibration    18          0.714              1.611              1.249
 Vibration    19          0.717              1.603              1.230
 Vibration    20          0.726              1.579              1.174
 Vibration    21          0.740              1.539              1.090
 Vibration    22          0.761              1.484              0.987
 Vibration    23          0.779              1.435              0.906
 Vibration    24          0.785              1.420              0.882
 Vibration    25          0.802              1.378              0.819
 Vibration    26          0.835              1.298              0.714
 Vibration    27          0.846              1.272              0.684
 Vibration    28          0.869              1.218              0.623
 Vibration    29          0.886              1.181              0.584
 Vibration    30          0.919              1.111              0.518
 Vibration    31          0.933              1.081              0.491
 Vibration    32          0.948              1.051              0.465
 Vibration    33          0.963              1.023              0.443
 Vibration    34          0.970              1.009              0.431

 Normal termination of Gaussian 09 at Thu Jan 21 17:57:37 2016.
