 Gaussian 09, Revision B.01,
 Gaussian 09:  EM64L-G09RevB.01 12-Aug-2010

 -------------------------------------------------
 # freq=raman b3lyp/6-31+g(2d,p) geom=connectivity
 -------------------------------------------------

 -----------------
 500 9414/9414.com
 -----------------
 Symbolic Z-matrix:
 Charge =  0 Multiplicity = 1

                         Standard orientation:
 ---------------------------------------------------------------------
 Center     Atomic      Atomic             Coordinates (Angstroms)
 Number     Number       Type             X           Y           Z
 ---------------------------------------------------------------------
      1          8           0        5.150728   -0.283831   -0.432453
      2          6           0        3.878630    0.035754    0.148439
      3          6           0        3.256418    1.333876   -0.339896
      4          8           0        4.191189    2.379430   -0.037456
      5          1           0        5.031735    1.933259    0.272143
      6          6           0        1.864427    1.691909    0.154459
      7          8           0        1.441541    2.955335   -0.377401
      8          1           0        1.779247    3.793493    0.051756
      9          6           0        3.226891   -2.409703    0.274947
     10          8           0        2.468705   -3.606118    0.041894
     11          1           0        2.811077   -4.398370   -0.464020
     12          6           0        2.819867   -1.010279   -0.157129
     13          8           0        1.594604   -0.743073    0.540058
     14          6           0        1.042484    0.433022   -0.068620
     15          8           0       -0.195938    0.785399    0.565569
     16          6           0       -1.340225    0.289041   -0.142968
     17          6           0       -1.622078   -1.151865    0.252317
     18          8           0       -0.813532   -2.140859   -0.401176
     19          1           0        0.035975   -2.240100    0.117194
     20          6           0       -2.982063   -1.575982   -0.278387
     21          8           0       -3.111996   -2.859662    0.348996
     22          1           0       -2.176163   -3.199459    0.257188
     23          6           0       -2.442752    2.528166   -0.158397
     24          8           0       -3.357310    3.442408    0.462624
     25          1           0       -3.399322    4.322772   -0.009166
     26          6           0       -2.530016    1.096811    0.346870
     27          8           0       -3.794180    0.687490   -0.194099
     28          6           0       -4.128204   -0.668114    0.137877
     29          8           0       -5.269061   -0.940964   -0.689026
     30          1           0       -5.991462   -1.259234   -0.142728
     31          1           0       -4.360465   -0.773477    1.177037
     32          1           0       -2.952627   -1.681634   -1.342751
     33          1           0       -1.579249   -1.270404    1.314868
     34          1           0       -1.215285    0.385371   -1.201273
     35          1           0       -2.567263    1.086864    1.416175
     36          1           0       -2.631581    2.525880   -1.211601
     37          1           0       -1.447026    2.883572    0.006275
     38          1           0        5.753895   -0.571831    0.256638
     39          1           0        3.374127   -2.358006    1.333507
     40          1           0        4.188366   -2.582780   -0.161527
     41          1           0        2.627986   -1.013085   -1.209780
     42          1           0        3.998951    0.096419    1.209920
     43          1           0        3.195872    1.265984   -1.406022
     44          1           0        1.936246    1.822341    1.214048
     45          1           0        0.888693    0.272162   -1.115220
 ---------------------------------------------------------------------

 SCF Done:  E(RB3LYP) =  -1297.96746407     A.U. after   14 cycles

 The electronic state is 1-A.
 Alpha  occ. eigenvalues --  -19.20070 -19.20059 -19.17660 -19.17245 -19.17030
 Alpha  occ. eigenvalues --  -19.16706 -19.16624 -19.15275 -19.15095 -19.14091
 Alpha  occ. eigenvalues --  -19.13088 -10.31258 -10.28225 -10.27837 -10.26941
 Alpha  occ. eigenvalues --  -10.26227 -10.25701 -10.25511 -10.24726 -10.24030
 Alpha  occ. eigenvalues --  -10.24003 -10.22580 -10.21882  -1.10682  -1.07891
 Alpha  occ. eigenvalues --   -1.06795  -1.05184  -1.04689  -1.04140  -1.03065
 Alpha  occ. eigenvalues --   -1.02255  -1.01064  -0.99853  -0.99558  -0.82753
 Alpha  occ. eigenvalues --   -0.82254  -0.78697  -0.76944  -0.72710  -0.68923
 Alpha  occ. eigenvalues --   -0.67487  -0.64721  -0.64088  -0.63059  -0.61251
 Alpha  occ. eigenvalues --   -0.59953  -0.57859  -0.56339  -0.55572  -0.54603
 Alpha  occ. eigenvalues --   -0.54068  -0.53161  -0.52871  -0.51819  -0.51591
 Alpha  occ. eigenvalues --   -0.50909  -0.50337  -0.47539  -0.47272  -0.46877
 Alpha  occ. eigenvalues --   -0.46630  -0.44982  -0.44264  -0.43744  -0.43225
 Alpha  occ. eigenvalues --   -0.42646  -0.41378  -0.41101  -0.40565  -0.40062
 Alpha  occ. eigenvalues --   -0.38549  -0.38085  -0.36535  -0.36314  -0.36073
 Alpha  occ. eigenvalues --   -0.35920  -0.34476  -0.34086  -0.34046  -0.33146
 Alpha  occ. eigenvalues --   -0.32450  -0.31746  -0.31393  -0.30836  -0.29992
 Alpha  occ. eigenvalues --   -0.29746  -0.28874  -0.28223  -0.27105  -0.26254
 Alpha  occ. eigenvalues --   -0.25572
 Alpha virt. eigenvalues --   -0.03771  -0.02249  -0.01072   0.00038   0.00570
 Alpha virt. eigenvalues --    0.01158   0.01581   0.01900   0.02570   0.03129
 Alpha virt. eigenvalues --    0.03802   0.04238   0.05251   0.05484   0.05713

 Mulliken atomic charges:
              1
     1  O   -0.526955
     2  C   -0.328330
     3  C    0.341433
     4  O   -0.574632
     5  H    0.333377
     6  C   -0.041921
     7  O   -0.564642
     8  H    0.360170
     9  C   -0.457156
    10  O   -0.568301
    11  H    0.351933
    12  C    0.590980
    13  O   -0.310813
    14  C    0.091627
    15  O   -0.226450
    16  C    0.338785
    17  C   -0.033610
    18  O   -0.570344
    19  H    0.378770
    20  C    0.183074
    21  O   -0.553414
    22  H    0.360180
    23  C   -0.339905
    24  O   -0.524350
    25  H    0.326863
    26  C    0.064811
    27  O   -0.236234
    28  C    0.094032
    29  O   -0.512216
    30  H    0.325801
    31  H    0.128494
    32  H    0.137019
    33  H    0.147969
    34  H    0.116823
    35  H    0.124309
    36  H    0.139539
    37  H    0.163809
    38  H    0.344037
    39  H    0.148729
    40  H    0.146293
    41  H    0.119808
    42  H    0.133316
    43  H    0.124798
    44  H    0.124544
    45  H    0.127947
 Sum of Mulliken atomic charges =   0.00000

 Dipole moment (field-independent basis, Debye):
    X=              7.6706    Y=             -0.6959    Z=              1.5268  Tot=              7.8520
 Quadrupole moment (field-independent basis, Debye-Ang):
   XX=           -128.7227   YY=           -134.3485   ZZ=           -139.1350
   XY=            -14.4908   XZ=              4.0818   YZ=              0.1686

  Exact polarizability: 223.225  -1.322 205.045   1.595   0.255 143.770
 Approx polarizability: 265.325  -3.558 265.231   2.823   0.367 241.002

 ******    7 imaginary frequencies (negative Signs) ******

                     1                      2                      3
                     A                      A                      A
 Frequencies --  -318.4379              -291.3341              -220.3837
 Red. masses --     1.1174                 1.5855                 2.0089
 Frc consts  --     0.0668                 0.0793                 0.0575
 IR Inten    --    94.8350                 6.7874                 5.4936
 Raman Activ --     0.9035                 0.0435                 0.0457

                     4                      5                      6
                     A                      A                      A
 Frequencies --   -85.9693               -76.0415               -48.5680
 Red. masses --     4.3767                 1.8117                 8.7313
 Frc consts  --     0.0191                 0.0062                 0.0121
 IR Inten    --    17.1034                68.2636                10.0614
 Raman Activ --     0.1316                 0.4618                 0.1325

                     7                      8                      9
                     A                      A                      A
 Frequencies --   -30.3564                23.5577                43.4318
 Red. masses --     5.7922                 6.7739                 5.1767
 Frc consts  --     0.0031                 0.0022                 0.0058
 IR Inten    --     1.8884                 0.5964                 3.1664
 Raman Activ --     0.0249                 0.0216                 0.1661

                    10                     11                     12
                     A                      A                      A
 Frequencies --    54.3104               100.0330               115.2903
 Red. masses --     5.5939                 5.0239                 6.1480
 Frc consts  --     0.0097                 0.0296                 0.0481
 IR Inten    --     4.4218                14.4078                 2.7446
 Raman Activ --     0.0619                 0.2041                 0.3031

                    13                     14                     15
                     A                      A                      A
 Frequencies --   128.5126               144.7945               180.8070
 Red. masses --     5.6035                 5.3874                 6.7012
 Frc consts  --     0.0545                 0.0665                 0.1291
 IR Inten    --     2.9711                 2.9292                 5.2303
 Raman Activ --     0.1314                 0.9984                 0.4963

                    16                     17                     18
                     A                      A                      A
 Frequencies --   204.0057               214.6475               264.2856
 Red. masses --     5.2783                 5.8994                 4.2201
 Frc consts  --     0.1294                 0.1601                 0.1737
 IR Inten    --     5.2337                 5.7067                 2.7650
 Raman Activ --     0.1990                 1.3221                 0.8156

                    19                     20                     21
                     A                      A                      A
 Frequencies --   274.5844               281.1102               297.7508
 Red. masses --     5.1164                 6.2462                 5.3634
 Frc consts  --     0.2273                 0.2908                 0.2802
 IR Inten    --    14.4731                 2.1536                 1.8177
 Raman Activ --     1.0751                 0.8681                 0.4123

                    22                     23                     24
                     A                      A                      A
 Frequencies --   309.7042               322.3222               325.5720
 Red. masses --     5.3614                 3.7724                 6.8308
 Frc consts  --     0.3030                 0.2309                 0.4266
 IR Inten    --     0.8428                 7.5303                 0.7251
 Raman Activ --     1.0609                 0.6619                 4.4645

                    25                     26                     27
                     A                      A                      A
 Frequencies --   359.6213               366.9853               384.6194
 Red. masses --     4.1482                 5.1129                 5.1967
 Frc consts  --     0.3161                 0.4057                 0.4529
 IR Inten    --    14.3646                 2.6689                14.2603
 Raman Activ --     0.3210                 1.7932                 1.1408

                    28                     29                     30
                     A                      A                      A
 Frequencies --   411.0328               424.7514               438.6602
 Red. masses --     4.3325                 3.8688                 3.7853
 Frc consts  --     0.4313                 0.4112                 0.4292
 IR Inten    --    13.1896                16.9949                15.4942
 Raman Activ --     5.5843                 0.8262                 4.7135

                    31                     32                     33
                     A                      A                      A
 Frequencies --   448.7789               475.8978               497.9849
 Red. masses --     5.3869                 4.8351                 3.6890
 Frc consts  --     0.6392                 0.6452                 0.5390
 IR Inten    --     5.3485                30.2860                 2.3994
 Raman Activ --     2.2602                 0.4791                 0.6166

                    34                     35                     36
                     A                      A                      A
 Frequencies --   514.7099               543.3365               545.8510
 Red. masses --     2.4543                 2.3272                 3.8431
 Frc consts  --     0.3831                 0.4048                 0.6747
 IR Inten    --    20.5304                28.4306                20.6512
 Raman Activ --     1.9467                 2.2004                 1.2745

                    37                     38                     39
                     A                      A                      A
 Frequencies --   556.4863               561.9031               596.6869
 Red. masses --     4.7876                 1.7582                 1.6943
 Frc consts  --     0.8735                 0.3271                 0.3554
 IR Inten    --     6.0905                84.9314                 4.1839
 Raman Activ --     6.4662                 1.0573                 1.4516

                    40                     41                     42
                     A                      A                      A
 Frequencies --   621.3140               640.8009               647.8019
 Red. masses --     2.4958                 2.8291                 1.9695
 Frc consts  --     0.5677                 0.6845                 0.4870
 IR Inten    --    20.7051                42.5607                13.4177
 Raman Activ --     1.1683                 0.4896                 0.7613

                    43                     44                     45
                     A                      A                      A
 Frequencies --   659.6844               670.0049               674.3243
 Red. masses --     1.0779                 1.4394                 3.4672
 Frc consts  --     0.2764                 0.3807                 0.9289
 IR Inten    --   117.3552                85.8395                 4.9826
 Raman Activ --     2.0569                 1.1512                 0.4126

                    46                     47                     48
                     A                      A                      A
 Frequencies --   808.8571               840.6188               861.5210
 Red. masses --     1.1709                 2.2296                 2.5705
 Frc consts  --     0.4514                 0.9283                 1.1241
 IR Inten    --   104.2459                14.2231                24.5276
 Raman Activ --     2.4630                 1.1269                 3.5801

                    49                     50                     51
                     A                      A                      A
 Frequencies --   886.2780               958.3578               963.2740
 Red. masses --     1.1083                 6.0826                 4.8995
 Frc consts  --     0.5129                 3.2915                 2.6786
 IR Inten    --    75.1305               121.3034                16.6928
 Raman Activ --     2.0007                 0.3069                 4.0568

                    52                     53                     54
                     A                      A                      A
 Frequencies --   967.8191               975.1128               984.9753
 Red. masses --     5.2622                 7.0716                 4.9041
 Frc consts  --     2.9041                 3.9617                 2.8032
 IR Inten    --   196.8992               222.4749               122.6550
 Raman Activ --     1.2050                 1.9484                 3.6337

                    55                     56                     57
                     A                      A                      A
 Frequencies --   995.9520              1010.3236              1030.7633
 Red. masses --     5.3471                 3.8013                 6.6823
 Frc consts  --     3.1250                 2.2861                 4.1831
 IR Inten    --   103.6053                54.6695               291.3825
 Raman Activ --     1.9530                 2.7076                 4.2744

                    58                     59                     60
                     A                      A                      A
 Frequencies --  1043.5259              1047.9965              1053.3216
 Red. masses --     4.3937                 5.3627                 6.1332
 Frc consts  --     2.8189                 3.4702                 4.0092
 IR Inten    --    34.1198               250.5444                38.0687
 Raman Activ --    15.5081                 7.2955                 7.0117

                    61                     62                     63
                     A                      A                      A
 Frequencies --  1054.8283              1068.0100              1071.1663
 Red. masses --     3.2250                 3.9090                 3.1093
 Frc consts  --     2.1142                 2.6270                 2.1019
 IR Inten    --    17.6566                88.1013                12.8389
 Raman Activ --     1.6656                 7.4335                 3.1613

                    64                     65                     66
                     A                      A                      A
 Frequencies --  1083.7286              1095.5723              1099.8793
 Red. masses --     3.1146                 2.1397                 2.5577
 Frc consts  --     2.1553                 1.5132                 1.8230
 IR Inten    --   104.3991                26.6295                 7.2718
 Raman Activ --     5.8784                 2.5733                 6.7042

                    67                     68                     69
                     A                      A                      A
 Frequencies --  1105.4751              1111.9093              1124.5333
 Red. masses --     2.4136                 2.6261                 2.3124
 Frc consts  --     1.7378                 1.9129                 1.7229
 IR Inten    --     4.2800                13.1262                21.0985
 Raman Activ --     5.0812                 2.0322                 6.1754

                    70                     71                     72
                     A                      A                      A
 Frequencies --  1135.2850              1138.8782              1144.8848
 Red. masses --     1.9872                 1.5108                 2.3047
 Frc consts  --     1.5090                 1.1545                 1.7799
 IR Inten    --    56.9583                19.5314                 5.3578
 Raman Activ --     7.3050                 1.7809                 1.8599

                    73                     74                     75
                     A                      A                      A
 Frequencies --  1155.9339              1166.0420              1167.7699
 Red. masses --     2.3488                 1.7926                 2.2013
 Frc consts  --     1.8491                 1.4360                 1.7687
 IR Inten    --     4.0790                17.3374                 7.5304
 Raman Activ --     3.7229                 2.2372                 0.7333

                    76                     77                     78
                     A                      A                      A
 Frequencies --  1185.6089              1212.1728              1216.7644
 Red. masses --     1.4452                 1.2637                 1.4118
 Frc consts  --     1.1969                 1.0940                 1.2315
 IR Inten    --     6.3122                 8.1435                24.5445
 Raman Activ --     3.0949                 0.2695                 2.0372

                    79                     80                     81
                     A                      A                      A
 Frequencies --  1222.1743              1224.1202              1235.3300
 Red. masses --     1.2424                 1.2560                 1.3227
 Frc consts  --     1.0934                 1.1089                 1.1893
 IR Inten    --    18.5572                22.0414                 3.5800
 Raman Activ --     2.0395                 4.0806                 3.3245

                    82                     83                     84
                     A                      A                      A
 Frequencies --  1264.2636              1265.1875              1269.7539
 Red. masses --     1.2149                 1.2329                 1.2288
 Frc consts  --     1.1441                 1.1627                 1.1672
 IR Inten    --    12.2915                25.1110                19.0893
 Raman Activ --     1.0144                 5.4826                 1.7305

                    85                     86                     87
                     A                      A                      A
 Frequencies --  1288.7147              1291.4977              1297.4985
 Red. masses --     1.2602                 1.4968                 1.3201
 Frc consts  --     1.2331                 1.4709                 1.3094
 IR Inten    --    17.8713                13.1338                23.3583
 Raman Activ --     0.6005                 3.6358                 5.8279

                    88                     89                     90
                     A                      A                      A
 Frequencies --  1302.8117              1312.1138              1314.8977
 Red. masses --     1.3162                 1.3735                 1.3760
 Frc consts  --     1.3162                 1.3932                 1.4017
 IR Inten    --    21.7043                13.7915                30.9475
 Raman Activ --     6.1616                 5.4896                 4.7487

                    91                     92                     93
                     A                      A                      A
 Frequencies --  1327.4286              1336.7925              1345.9144
 Red. masses --     1.3318                 1.4499                 1.3261
 Frc consts  --     1.3827                 1.5265                 1.4154
 IR Inten    --    28.6233                11.9096                20.4446
 Raman Activ --     3.6590                 1.6831                 2.3223

                    94                     95                     96
                     A                      A                      A
 Frequencies --  1349.3558              1351.7744              1366.2849
 Red. masses --     1.5319                 1.3558                 1.4196
 Frc consts  --     1.6433                 1.4597                 1.5613
 IR Inten    --    32.6118                10.8374                56.0898
 Raman Activ --     2.5080                 4.6230                10.5948

                    97                     98                     99
                     A                      A                      A
 Frequencies --  1370.6934              1378.2174              1388.2440
 Red. masses --     1.2553                 1.2991                 1.3404
 Frc consts  --     1.3895                 1.4539                 1.5220
 IR Inten    --    15.3053                 6.2423                 2.6559
 Raman Activ --     4.0320                 5.4120                 2.8715

                   100                    101                    102
                     A                      A                      A
 Frequencies --  1401.2520              1404.3171              1442.8003
 Red. masses --     1.4216                 1.3243                 1.2930
 Frc consts  --     1.6446                 1.5387                 1.5859
 IR Inten    --     3.9073                 6.0002                 3.0419
 Raman Activ --     5.9905                 0.5313                 2.8900

                   103                    104                    105
                     A                      A                      A
 Frequencies --  1443.9995              1448.3156              1470.4382
 Red. masses --     1.2527                 1.2081                 1.0719
 Frc consts  --     1.5390                 1.4931                 1.3655
 IR Inten    --    10.8068                31.7840                 7.1236
 Raman Activ --     1.7345                 3.6097                 4.7533

                   106                    107                    108
                     A                      A                      A
 Frequencies --  1488.3881              1524.2053              3262.3233
 Red. masses --     1.2444                 1.3188                 1.0603
 Frc consts  --     1.6243                 1.8052                 6.6486
 IR Inten    --   101.0250               132.7841                34.7117
 Raman Activ --     2.1192                 2.3534                83.3788

                   109                    110                    111
                     A                      A                      A
 Frequencies --  3262.7133              3269.4313              3273.3176
 Red. masses --     1.0574                 1.0803                 1.0827
 Frc consts  --     6.6319                 6.8039                 6.8350
 IR Inten    --    24.4519                 2.4673                 0.4158
 Raman Activ --    84.9367               117.1186                28.6082

                   112                    113                    114
                     A                      A                      A
 Frequencies --  3278.9895              3284.3842              3286.2552
 Red. masses --     1.0835                 1.0850                 1.0849
 Frc consts  --     6.8635                 6.8961                 6.9030
 IR Inten    --     0.2469                 0.1845                 4.8200
 Raman Activ --    66.9366                28.2393                18.7775

                   115                    116                    117
                     A                      A                      A
 Frequencies --  3289.5645              3292.1804              3296.6392
 Red. masses --     1.0857                 1.0854                 1.0860
 Frc consts  --     6.9219                 6.9310                 6.9540
 IR Inten    --    21.2766                 0.8619                15.8556
 Raman Activ --   149.4878                70.6158                38.3388

                   118                    119                    120
                     A                      A                      A
 Frequencies --  3298.5992              3305.9508              3313.7264
 Red. masses --     1.0868                 1.0823                 1.1011
 Frc consts  --     6.9671                 6.9696                 7.1239
 IR Inten    --    39.0919                69.9512                59.9832
 Raman Activ --     5.0599                29.4585                36.0009

                   121                    122                    123
                     A                      A                      A
 Frequencies --  3318.1359              3319.0334              3351.6353
 Red. masses --     1.0799                 1.0943                 1.0664
 Frc consts  --     7.0053                 7.1024                 7.0578
 IR Inten    --   139.2996                54.9405                34.3351
 Raman Activ --    22.2428                73.7221                75.9459

                   124                    125                    126
                     A                      A                      A
 Frequencies --  3362.6739              3365.1520              3371.0585
 Red. masses --     1.0660                 1.0715                 1.0675
 Frc consts  --     7.1022                 7.1489                 7.1477
 IR Inten    --   131.6598                93.0942                36.3749
 Raman Activ --   151.4748               143.4360               167.5026

                   127                    128                    129
                     A                      A                      A
 Frequencies --  3374.4626              3886.8499              3893.7612
 Red. masses --     1.0686                 1.0677                 1.0673
 Frc consts  --     7.1690                 9.5037                 9.5342
 IR Inten    --   113.6554                81.6033                68.4748
 Raman Activ --   140.0369                91.4967               128.0412

 - Thermochemistry -
 -------------------
 Temperature   298.150 Kelvin.  Pressure   1.00000 Atm.
 Atom     1 has atomic number  8 and mass  15.99491

 Molecular mass:   342.11621 amu.
 Principal axes and moments of inertia in atomic units:
                           1         2         3
     Eigenvalues --  4743.65204********************
           X            0.99997  -0.00831   0.00066
           Y            0.00831   0.99996  -0.00154
           Z           -0.00065   0.00155   1.00000
 This molecule is an asymmetric top.
 Rotational symmetry number  1.
 Warning -- assumption of classical behavior for rotation
           may cause significant error
 Rotational temperatures (Kelvin)      0.01826     0.00738     0.00539
 Rotational constants (GHZ):           0.38045     0.15367     0.11229
    7 imaginary frequencies ignored.
 Zero-point vibrational energy     970032.2 (Joules/Mol)
                                  231.84326 (Kcal/Mol)
 Warning -- explicit consideration of  32 degrees of freedom as
           vibrations may cause significant error
 Vibrational temperatures:     33.89    62.49    78.14   143.92   165.88
          (Kelvin)            184.90   208.33   260.14   293.52   308.83
                              380.25   395.07   404.45   428.40   445.59
                              463.75   468.42   517.41   528.01   553.38
                              591.38   611.12   631.13   645.69   684.71
                              716.49   740.55   781.74   785.36   800.66
                              808.45   858.50   893.93   921.97   932.04
                              949.14   963.99   970.20  1163.76  1209.46
                             1239.53  1275.15  1378.86  1385.93  1392.47
                             1402.97  1417.16  1432.95  1453.63  1483.04
                             1501.40  1507.83  1515.49  1517.66  1536.63
                             1541.17  1559.24  1576.28  1582.48  1590.53
                             1599.79  1617.95  1633.42  1638.59  1647.23
                             1663.13  1677.67  1680.16  1705.82  1744.04
                             1750.65  1758.43  1761.23  1777.36  1818.99
                             1820.32  1826.89  1854.17  1858.17  1866.81
                             1874.45  1887.84  1891.84  1909.87  1923.34
                             1936.47  1941.42  1944.90  1965.78  1972.12
                             1982.94  1997.37  2016.09  2020.50  2075.87
                             2077.59  2083.80  2115.63  2141.46  2192.99
                             4693.75  4694.31  4703.98  4709.57  4717.73
                             4725.49  4728.18  4732.94  4736.71  4743.12
                             4745.94  4756.52  4767.71  4774.05  4775.34
                             4822.25  4838.13  4841.70  4850.20  4855.09
                             5592.30  5602.25

 Zero-point correction=                           0.369466 (Hartree/Particle)
 Thermal correction to Energy=                    0.388191
 Thermal correction to Enthalpy=                  0.389136
 Thermal correction to Gibbs Free Energy=         0.322447
 Sum of electronic and zero-point Energies=          -1297.597998
 Sum of electronic and thermal Energies=             -1297.579273
 Sum of electronic and thermal Enthalpies=           -1297.578329
 Sum of electronic and thermal Free Energies=        -1297.645017

                     E (Thermal)             CV                S
                      KCal/Mol        Cal/Mol-Kelvin    Cal/Mol-Kelvin
 Total                  243.594             76.829            140.358
 Electronic               0.000              0.000              0.000
 Translational            0.889              2.981             43.384
 Rotational               0.889              2.981             35.147
 Vibrational            241.816             70.868             61.826
 Vibration     1          0.593              1.985              6.309
 Vibration     2          0.595              1.980              5.096
 Vibration     3          0.596              1.976              4.654
 Vibration     4          0.604              1.949              3.454
 Vibration     5          0.608              1.937              3.178
 Vibration     6          0.611              1.925              2.968
 Vibration     7          0.616              1.908              2.740
 Vibration     8          0.630              1.866              2.320
 Vibration     9          0.640              1.834              2.097
 Vibration    10          0.645              1.819              2.004
 Vibration    11          0.671              1.738              1.633
 Vibration    12          0.677              1.720              1.567
 Vibration    13          0.681              1.709              1.527
 Vibration    14          0.691              1.678              1.430
 Vibration    15          0.699              1.655              1.364
 Vibration    16          0.707              1.631              1.298
 Vibration    17          0.710              1.624              1.282
 Vibration    18          0.734              1.555              1.124
 Vibration    19          0.740              1.540              1.092
 Vibration    20          0.754              1.503              1.021
 Vibration    21          0.775              1.446              0.923
 Vibration    22          0.787              1.416              0.876
 Vibration    23          0.799              1.386              0.831
 Vibration    24          0.808              1.364              0.799
 Vibration    25          0.833              1.304              0.721
 Vibration    26          0.853              1.254              0.663
 Vibration    27          0.870              1.217              0.622
 Vibration    28          0.898              1.154              0.558
 Vibration    29          0.901              1.149              0.553
 Vibration    30          0.912              1.126              0.531
 Vibration    31          0.918              1.114              0.520
 Vibration    32          0.955              1.039              0.455

 Normal termination of Gaussian 09 at Sat Apr  2 23:35:00 2016.
