 Gaussian 09, Revision B.01,
 Gaussian 09:  EM64L-G09RevB.01 12-Aug-2010

 -------------------------------------------------
 # freq=raman b3lyp/6-31+g(2d,p) geom=connectivity
 -------------------------------------------------

 -----------------
 300 7652/7652.com
 -----------------
 Symbolic Z-matrix:
 Charge =  0 Multiplicity = 1

                         Standard orientation:
 ---------------------------------------------------------------------
 Center     Atomic      Atomic             Coordinates (Angstroms)
 Number     Number       Type             X           Y           Z
 ---------------------------------------------------------------------
      1          8           0       -4.983698   -0.511513    0.490279
      2          6           0       -3.726401   -0.192992   -0.123380
      3          6           0       -3.248229    1.178457    0.323758
      4          8           0       -4.283055    2.172038    0.293530
      5          1           0       -5.173339    1.715723    0.306374
      6          6           0       -1.951532    1.553562   -0.374676
      7          8           0       -1.493176    2.828431    0.100117
      8          1           0       -0.546238    2.920405   -0.207583
      9          6           0       -3.051755   -2.559990   -0.402343
     10          8           0       -4.059584   -3.149469    0.432267
     11          1           0       -3.814586   -4.118879    0.422137
     12          6           0       -2.625243   -1.206901    0.143771
     13          8           0       -1.361104   -0.880036   -0.452989
     14          6           0       -0.955202    0.444748   -0.079537
     15          8           0        0.360832    0.498297   -0.647816
     16          6           0        1.504280    0.166643    0.154060
     17          6           0        2.109073   -1.145981   -0.315086
     18          8           0        1.144350   -2.178251   -0.064031
     19          1           0        0.394673   -1.905343   -0.665832
     20          6           0        3.485255   -1.464209    0.246230
     21          8           0        3.899095   -2.661390   -0.428533
     22          1           0        4.833763   -2.950932   -0.221120
     23          6           0        2.197779    2.710923    0.052868
     24          8           0        0.987811    3.317434   -0.423555
     25          1           0        1.213382    4.288787   -0.353934
     26          6           0        2.538132    1.241439   -0.137278
     27          8           0        3.757072    0.836064    0.503502
     28          6           0        4.441570   -0.312142   -0.015120
     29          8           0        5.588020   -0.478916    0.831719
     30          1           0        6.369325   -0.612075    0.290027
     31          1           0       -5.634349   -0.696904   -0.190811
     32          1           0       -3.442272   -2.433812   -1.390511
     33          1           0       -2.201617   -3.208662   -0.439635
     34          1           0       -2.490591   -1.292397    1.201816
     35          1           0       -3.882726   -0.154850   -1.181211
     36          1           0       -2.992489    1.069246    1.356991
     37          1           0       -2.119749    1.607686   -1.429983
     38          1           0       -0.827034    0.438050    0.982738
     39          1           0        3.002883    3.264336   -0.383528
     40          1           0        2.229582    2.892373    1.106891
     41          1           0        2.733333    1.150115   -1.185351
     42          1           0        1.257247    0.134818    1.194666
     43          1           0        2.219482   -1.074557   -1.376976
     44          1           0        3.414770   -1.646398    1.298247
     45          1           0        4.697685   -0.209580   -1.048940
 ---------------------------------------------------------------------

 SCF Done:  E(RB3LYP) =  -1297.97491385     A.U. after   13 cycles

 The electronic state is 1-A.
 Alpha  occ. eigenvalues --  -19.19590 -19.18525 -19.17828 -19.17537 -19.17351
 Alpha  occ. eigenvalues --  -19.16927 -19.16042 -19.16013 -19.14346 -19.14198
 Alpha  occ. eigenvalues --  -19.12822 -10.31221 -10.29861 -10.26128 -10.25867
 Alpha  occ. eigenvalues --  -10.25194 -10.24876 -10.24787 -10.24589 -10.24142
 Alpha  occ. eigenvalues --  -10.24048 -10.23716 -10.23499  -1.09561  -1.08982
 Alpha  occ. eigenvalues --   -1.06567  -1.05136  -1.03831  -1.03326  -1.02845
 Alpha  occ. eigenvalues --   -1.02424  -1.01233  -1.00749  -0.99494  -0.81838
 Alpha  occ. eigenvalues --   -0.80402  -0.79409  -0.77851  -0.72227  -0.69583
 Alpha  occ. eigenvalues --   -0.67336  -0.64283  -0.62884  -0.62016  -0.61370
 Alpha  occ. eigenvalues --   -0.60178  -0.56603  -0.55938  -0.54962  -0.54459
 Alpha  occ. eigenvalues --   -0.54033  -0.53477  -0.52761  -0.51977  -0.50569
 Alpha  occ. eigenvalues --   -0.50513  -0.49558  -0.49017  -0.48685  -0.46796
 Alpha  occ. eigenvalues --   -0.46571  -0.45129  -0.44061  -0.43237  -0.42856
 Alpha  occ. eigenvalues --   -0.42593  -0.41738  -0.40769  -0.39909  -0.39121
 Alpha  occ. eigenvalues --   -0.38676  -0.38226  -0.37763  -0.36449  -0.35373
 Alpha  occ. eigenvalues --   -0.34897  -0.34695  -0.33981  -0.33932  -0.33565
 Alpha  occ. eigenvalues --   -0.32732  -0.31242  -0.30741  -0.29995  -0.29787
 Alpha  occ. eigenvalues --   -0.28984  -0.28771  -0.28087  -0.26607  -0.26455
 Alpha  occ. eigenvalues --   -0.26220
 Alpha virt. eigenvalues --   -0.02413  -0.02302  -0.01692  -0.00097   0.00171
 Alpha virt. eigenvalues --    0.00862   0.01904   0.02200   0.02993   0.03707
 Alpha virt. eigenvalues --    0.03798   0.04224   0.05079   0.05132   0.05636

 Mulliken atomic charges:
              1
     1  O   -0.543112
     2  C   -0.225585
     3  C    0.278402
     4  O   -0.573820
     5  H    0.345507
     6  C    0.052410
     7  O   -0.578927
     8  H    0.434616
     9  C   -0.260515
    10  O   -0.494095
    11  H    0.335371
    12  C    0.197461
    13  O   -0.270148
    14  C    0.176926
    15  O   -0.256226
    16  C    0.434760
    17  C   -0.010167
    18  O   -0.510960
    19  H    0.354981
    20  C    0.178316
    21  O   -0.555544
    22  H    0.331293
    23  C   -0.373010
    24  O   -0.530303
    25  H    0.358841
    26  C   -0.051755
    27  O   -0.281228
    28  C    0.117174
    29  O   -0.522344
    30  H    0.332617
    31  H    0.346706
    32  H    0.134969
    33  H    0.140124
    34  H    0.121955
    35  H    0.113042
    36  H    0.108247
    37  H    0.115922
    38  H    0.102189
    39  H    0.146698
    40  H    0.157012
    41  H    0.108273
    42  H    0.116229
    43  H    0.123208
    44  H    0.136194
    45  H    0.138296
 Sum of Mulliken atomic charges =   0.00000

 Dipole moment (field-independent basis, Debye):
    X=              3.8328    Y=             -0.5213    Z=             -3.1488  Tot=              4.9877
 Quadrupole moment (field-independent basis, Debye-Ang):
   XX=           -114.4561   YY=           -135.1023   ZZ=           -140.7422
   XY=             16.5787   XZ=              1.7947   YZ=             -1.0511

  Exact polarizability: 234.394  -2.690 196.782   0.458   1.026 144.659
 Approx polarizability: 275.923  -4.080 256.606   0.393   1.346 241.365

 ******    7 imaginary frequencies (negative Signs) ******

                     1                      2                      3
                     A                      A                      A
 Frequencies --  -325.3459              -273.5305              -238.6854
 Red. masses --     1.7212                 1.1825                 1.4817
 Frc consts  --     0.1073                 0.0521                 0.0497
 IR Inten    --     0.9621               104.3151                65.8138
 Raman Activ --     0.0541                 0.9686                 0.4432

                     4                      5                      6
                     A                      A                      A
 Frequencies --  -173.1678               -80.3152               -49.1640
 Red. masses --     1.5747                 6.8572                 6.0852
 Frc consts  --     0.0278                 0.0261                 0.0087
 IR Inten    --    34.0087                 0.9791                 2.2803
 Raman Activ --     0.3394                 0.0337                 0.0381

                     7                      8                      9
                     A                      A                      A
 Frequencies --   -40.8253                39.1318                61.4965
 Red. masses --     5.7293                 6.4058                 6.6179
 Frc consts  --     0.0056                 0.0058                 0.0147
 IR Inten    --     2.3235                 0.3147                 0.2368
 Raman Activ --     0.0305                 0.0466                 0.1150

                    10                     11                     12
                     A                      A                      A
 Frequencies --    84.6275                98.7078               128.9564
 Red. masses --     6.7640                 5.4703                 5.5085
 Frc consts  --     0.0285                 0.0314                 0.0540
 IR Inten    --     0.6477                 5.5712                 0.6815
 Raman Activ --     0.1312                 0.1033                 0.0371

                    13                     14                     15
                     A                      A                      A
 Frequencies --   150.4164               170.3441               188.7578
 Red. masses --     5.8658                 6.2805                 6.1108
 Frc consts  --     0.0782                 0.1074                 0.1283
 IR Inten    --     4.0750                 2.4601                 0.1795
 Raman Activ --     0.3163                 1.0457                 0.5096

                    16                     17                     18
                     A                      A                      A
 Frequencies --   214.3410               231.5801               270.6833
 Red. masses --     6.4560                 5.9644                 4.4724
 Frc consts  --     0.1748                 0.1885                 0.1931
 IR Inten    --     0.8351                 1.9456                15.5239
 Raman Activ --     2.6270                 0.3663                 0.3470

                    19                     20                     21
                     A                      A                      A
 Frequencies --   279.1177               289.4016               300.9291
 Red. masses --     4.7925                 4.9817                 6.9105
 Frc consts  --     0.2200                 0.2458                 0.3687
 IR Inten    --     0.4481                 3.3002                 3.9325
 Raman Activ --     0.2813                 0.6548                 3.4781

                    22                     23                     24
                     A                      A                      A
 Frequencies --   306.8137               313.6824               326.8461
 Red. masses --     5.5053                 4.9589                 5.4963
 Frc consts  --     0.3053                 0.2875                 0.3459
 IR Inten    --     2.4177                 3.0304                 0.3060
 Raman Activ --     0.4293                 0.6428                 2.8710

                    25                     26                     27
                     A                      A                      A
 Frequencies --   347.1459               360.1862               373.1452
 Red. masses --     5.5840                 5.7517                 5.7050
 Frc consts  --     0.3965                 0.4396                 0.4680
 IR Inten    --    14.2607                 2.2587                 3.3457
 Raman Activ --     1.0817                 1.4179                 2.1173

                    28                     29                     30
                     A                      A                      A
 Frequencies --   411.2912               420.0236               432.9429
 Red. masses --     4.0437                 5.2735                 5.7149
 Frc consts  --     0.4030                 0.5481                 0.6311
 IR Inten    --    12.9561                 1.1377                 2.5166
 Raman Activ --     1.1090                 6.8479                 2.3511

                    31                     32                     33
                     A                      A                      A
 Frequencies --   436.7877               470.8335               486.0396
 Red. masses --     5.5184                 4.6574                 4.1257
 Frc consts  --     0.6203                 0.6083                 0.5742
 IR Inten    --     1.7651                 2.0054                10.7847
 Raman Activ --     0.7720                 6.9903                 0.6074

                    34                     35                     36
                     A                      A                      A
 Frequencies --   509.2115               529.6700               562.3563
 Red. masses --     3.8978                 3.1983                 3.8815
 Frc consts  --     0.5955                 0.5287                 0.7232
 IR Inten    --    17.1848                 7.9115                28.4254
 Raman Activ --     1.6259                 3.4574                 1.2872

                    37                     38                     39
                     A                      A                      A
 Frequencies --   584.6020               587.6794               613.4219
 Red. masses --     5.9040                 3.1261                 4.3504
 Frc consts  --     1.1888                 0.6361                 0.9645
 IR Inten    --     4.2855                29.7254                27.8642
 Raman Activ --     0.6497                 0.5405                 0.3990

                    40                     41                     42
                     A                      A                      A
 Frequencies --   618.4077               694.0014               700.1002
 Red. masses --     4.2039                 3.4615                 1.0592
 Frc consts  --     0.9472                 0.9823                 0.3059
 IR Inten    --    18.8728                23.9403               100.7332
 Raman Activ --     1.7313                 0.9103                 2.2165

                    43                     44                     45
                     A                      A                      A
 Frequencies --   705.9331               722.6207               726.5980
 Red. masses --     1.2051                 1.0896                 1.1124
 Frc consts  --     0.3538                 0.3352                 0.3460
 IR Inten    --    46.9767                88.6936               126.1940
 Raman Activ --     1.5148                 1.5858                 1.4199

                    46                     47                     48
                     A                      A                      A
 Frequencies --   767.1358               844.6506               861.9838
 Red. masses --     1.1096                 1.1318                 1.7379
 Frc consts  --     0.3847                 0.4758                 0.7608
 IR Inten    --   170.1490                56.8267                 0.5542
 Raman Activ --     5.3919                 0.9066                 0.7874

                    49                     50                     51
                     A                      A                      A
 Frequencies --   864.6852               915.4220               941.4184
 Red. masses --     1.6385                 5.7169                 5.7587
 Frc consts  --     0.7218                 2.8226                 3.0070
 IR Inten    --    16.1232               197.6152                17.4528
 Raman Activ --     1.0154                 3.8751                 0.5472

                    52                     53                     54
                     A                      A                      A
 Frequencies --   979.7345               982.8105               990.7274
 Red. masses --     5.0918                 6.1671                 7.2204
 Frc consts  --     2.8796                 3.5097                 4.1756
 IR Inten    --   260.7713                59.0529               193.2787
 Raman Activ --     2.7318                 1.7139                 0.9111

                    55                     56                     57
                     A                      A                      A
 Frequencies --  1003.5999              1010.7015              1024.5145
 Red. masses --     5.3373                 5.4554                 6.3302
 Frc consts  --     3.1674                 3.2834                 3.9148
 IR Inten    --    28.4525                67.1344                57.0033
 Raman Activ --     0.7410                 1.6843                 3.9833

                    58                     59                     60
                     A                      A                      A
 Frequencies --  1034.1409              1045.5713              1057.1862
 Red. masses --     5.8716                 7.0431                 5.2609
 Frc consts  --     3.6997                 4.5365                 3.4643
 IR Inten    --   441.2316               161.7314               114.9485
 Raman Activ --     3.0686                 1.4073                 6.2074

                    61                     62                     63
                     A                      A                      A
 Frequencies --  1062.1432              1069.8252              1084.7546
 Red. masses --     3.7610                 4.2147                 3.3971
 Frc consts  --     2.4999                 2.8421                 2.3552
 IR Inten    --    32.0673                20.1007                 9.7302
 Raman Activ --    14.5465                 4.5851                10.7462

                    64                     65                     66
                     A                      A                      A
 Frequencies --  1091.1387              1104.1309              1108.3445
 Red. masses --     2.3011                 2.6661                 2.4546
 Frc consts  --     1.6142                 1.9150                 1.7766
 IR Inten    --    16.1158                71.2453                64.4285
 Raman Activ --     1.3931                 2.1361                 7.3265

                    67                     68                     69
                     A                      A                      A
 Frequencies --  1112.3132              1118.6447              1136.3626
 Red. masses --     3.1457                 2.9321                 1.6689
 Frc consts  --     2.2931                 2.1618                 1.2698
 IR Inten    --    71.8635                13.8290                 2.9248
 Raman Activ --     9.5143                 7.2753                 5.2320

                    70                     71                     72
                     A                      A                      A
 Frequencies --  1139.5970              1155.1350              1159.3618
 Red. masses --     2.3894                 2.0178                 2.2903
 Frc consts  --     1.8283                 1.5864                 1.8138
 IR Inten    --     9.9389                17.0103                 9.1045
 Raman Activ --     2.8836                 4.5994                 1.6141

                    73                     74                     75
                     A                      A                      A
 Frequencies --  1166.4792              1177.1555              1190.6015
 Red. masses --     1.7299                 2.4468                 1.7559
 Frc consts  --     1.3869                 1.9976                 1.4665
 IR Inten    --     4.1985                17.9088                 9.9698
 Raman Activ --     2.7429                 2.8483                 2.3752

                    76                     77                     78
                     A                      A                      A
 Frequencies --  1206.2447              1211.9201              1220.6576
 Red. masses --     1.4129                 1.5183                 1.2640
 Frc consts  --     1.2113                 1.3139                 1.1097
 IR Inten    --     8.9531                13.7874                15.1630
 Raman Activ --     1.1661                 6.1160                 0.6816

                    79                     80                     81
                     A                      A                      A
 Frequencies --  1245.2294              1252.3556              1254.9926
 Red. masses --     1.3199                 1.5695                 1.2382
 Frc consts  --     1.2059                 1.4503                 1.1490
 IR Inten    --    19.5684                22.7407                31.5612
 Raman Activ --     2.1936                 1.4747                 0.8463

                    82                     83                     84
                     A                      A                      A
 Frequencies --  1271.5383              1281.3084              1283.2427
 Red. masses --     1.2949                 1.3053                 1.2501
 Frc consts  --     1.2335                 1.2626                 1.2128
 IR Inten    --     7.1921                 7.3792                 3.0758
 Raman Activ --     1.6003                 1.1681                 3.0859

                    85                     86                     87
                     A                      A                      A
 Frequencies --  1295.1785              1308.3671              1312.1903
 Red. masses --     1.3475                 1.2544                 1.2558
 Frc consts  --     1.3318                 1.2652                 1.2740
 IR Inten    --    31.1681                12.3429                23.3371
 Raman Activ --     1.7633                 2.5091                 7.0862

                    88                     89                     90
                     A                      A                      A
 Frequencies --  1319.3793              1323.1672              1329.1170
 Red. masses --     1.2419                 1.3469                 1.2194
 Frc consts  --     1.2737                 1.3894                 1.2692
 IR Inten    --     1.6554                18.2031                 0.9681
 Raman Activ --     3.6669                 5.2821                14.0214

                    91                     92                     93
                     A                      A                      A
 Frequencies --  1343.1652              1347.8915              1356.4352
 Red. masses --     1.2226                 1.3184                 1.3714
 Frc consts  --     1.2996                 1.4113                 1.4866
 IR Inten    --    41.7348                32.4495                 1.4828
 Raman Activ --     3.5953                 0.8680                 2.1250

                    94                     95                     96
                     A                      A                      A
 Frequencies --  1358.3427              1381.1089              1388.4837
 Red. masses --     1.5793                 1.1854                 1.1854
 Frc consts  --     1.7168                 1.3322                 1.3464
 IR Inten    --     0.6635                18.7523                30.4955
 Raman Activ --     4.1298                 5.5682                 1.7719

                    97                     98                     99
                     A                      A                      A
 Frequencies --  1393.8425              1395.9585              1404.6870
 Red. masses --     1.3637                 1.5467                 1.2575
 Frc consts  --     1.5610                 1.7758                 1.4619
 IR Inten    --    12.6222                31.9138                 0.6348
 Raman Activ --     5.8973                 1.3930                 8.4696

                   100                    101                    102
                     A                      A                      A
 Frequencies --  1412.7668              1430.9728              1471.4914
 Red. masses --     1.3660                 1.4756                 1.0844
 Frc consts  --     1.6063                 1.7802                 1.3834
 IR Inten    --     4.2106                53.0108                 5.6071
 Raman Activ --     2.3403                 1.0244                 5.0264

                   103                    104                    105
                     A                      A                      A
 Frequencies --  1475.4790              1488.2363              1498.6092
 Red. masses --     1.0747                 1.2734                 1.3299
 Frc consts  --     1.3785                 1.6617                 1.7597
 IR Inten    --     3.6234                42.0508                43.6054
 Raman Activ --     5.3594                 0.7518                 0.6875

                   106                    107                    108
                     A                      A                      A
 Frequencies --  1520.3215              1533.5912              3237.5570
 Red. masses --     1.2711                 1.2086                 1.0675
 Frc consts  --     1.7310                 1.6747                 6.5925
 IR Inten    --    30.7431                46.9585              1052.1605
 Raman Activ --     1.7301                 0.6759               112.3334

                   109                    110                    111
                     A                      A                      A
 Frequencies --  3251.2299              3253.5945              3258.3765
 Red. masses --     1.0819                 1.0588                 1.0771
 Frc consts  --     6.7380                 6.6035                 6.7374
 IR Inten    --    36.3635                21.1771                13.3729
 Raman Activ --    58.6380                45.4374               115.3003

                   112                    113                    114
                     A                      A                      A
 Frequencies --  3259.7931              3267.3232              3270.5533
 Red. masses --     1.0616                 1.0802                 1.0829
 Frc consts  --     6.6467                 6.7939                 6.8247
 IR Inten    --    50.5757                40.4101                 4.9307
 Raman Activ --   136.3355                42.1177                72.0592

                   115                    116                    117
                     A                      A                      A
 Frequencies --  3272.9025              3283.3745              3292.2141
 Red. masses --     1.0826                 1.0848                 1.0857
 Frc consts  --     6.8328                 6.8904                 6.9335
 IR Inten    --    13.8175                 2.7720                 4.7951
 Raman Activ --   124.0512                48.7924               101.9086

                   118                    119                    120
                     A                      A                      A
 Frequencies --  3293.3970              3299.1351              3305.3484
 Red. masses --     1.0870                 1.0870                 1.0960
 Frc consts  --     6.9465                 6.9705                 7.0547
 IR Inten    --    95.7122                 2.0072                 7.3066
 Raman Activ --     3.4071                35.4696                29.3599

                   121                    122                    123
                     A                      A                      A
 Frequencies --  3308.7057              3316.8205              3356.0944
 Red. masses --     1.0949                 1.1070                 1.0655
 Frc consts  --     7.0622                 7.1754                 7.0711
 IR Inten    --    96.7805                50.0409                48.4983
 Raman Activ --    32.3742                30.5065                97.6021

                   124                    125                    126
                     A                      A                      A
 Frequencies --  3361.3754              3363.5262              3371.9970
 Red. masses --     1.0653                 1.0668                 1.0685
 Frc consts  --     7.0916                 7.1107                 7.1580
 IR Inten    --   239.9495                18.4667                25.4999
 Raman Activ --    91.1841               212.7944               131.7665

                   127                    128                    129
                     A                      A                      A
 Frequencies --  3377.5215              3887.9218              3894.0442
 Red. masses --     1.0660                 1.0677                 1.0674
 Frc consts  --     7.1645                 9.5094                 9.5361
 IR Inten    --    69.6496                78.8279                73.3068
 Raman Activ --   137.8346                82.7543               122.9733

 - Thermochemistry -
 -------------------
 Temperature   298.150 Kelvin.  Pressure   1.00000 Atm.
 Atom     1 has atomic number  8 and mass  15.99491

 Molecular mass:   342.11621 amu.
 Principal axes and moments of inertia in atomic units:
                           1         2         3
     Eigenvalues --  4395.48516********************
           X            0.99997   0.00803  -0.00011
           Y           -0.00803   0.99997   0.00168
           Z            0.00012  -0.00168   1.00000
 This molecule is an asymmetric top.
 Rotational symmetry number  1.
 Warning -- assumption of classical behavior for rotation
           may cause significant error
 Rotational temperatures (Kelvin)      0.01971     0.00695     0.00529
 Rotational constants (GHZ):           0.41059     0.14476     0.11016
    7 imaginary frequencies ignored.
 Zero-point vibrational energy     975244.7 (Joules/Mol)
                                  233.08907 (Kcal/Mol)
 Warning -- explicit consideration of  33 degrees of freedom as
           vibrations may cause significant error
 Vibrational temperatures:     56.30    88.48   121.76   142.02   185.54
          (Kelvin)            216.42   245.09   271.58   308.39   333.19
                              389.45   401.59   416.38   432.97   441.44
                              451.32   470.26   499.46   518.23   536.87
                              591.76   604.32   622.91   628.44   677.42
                              699.30   732.64   762.08   809.10   841.11
                              845.54   882.58   889.75   998.51  1007.29
                             1015.68  1039.69  1045.41  1103.74  1215.26
                             1240.20  1244.09  1317.09  1354.49  1409.62
                             1414.04  1425.43  1443.95  1454.17  1474.05
                             1487.90  1504.34  1521.05  1528.19  1539.24
                             1560.72  1569.90  1588.60  1594.66  1600.37
                             1609.48  1634.97  1639.62  1661.98  1668.06
                             1678.30  1693.66  1713.01  1735.51  1743.68
                             1756.25  1791.61  1801.86  1805.65  1829.46
                             1843.51  1846.30  1863.47  1882.45  1887.95
                             1898.29  1903.74  1912.30  1932.51  1939.31
                             1951.61  1954.35  1987.11  1997.72  2005.43
                             2008.47  2021.03  2032.65  2058.85  2117.15
                             2122.88  2141.24  2156.16  2187.40  2206.49
                             4658.12  4677.79  4681.19  4688.07  4690.11
                             4700.94  4705.59  4708.97  4724.04  4736.76
                             4738.46  4746.71  4755.65  4760.48  4772.16
                             4828.67  4836.26  4839.36  4851.55  4859.49
                             5593.85  5602.65

 Zero-point correction=                           0.371451 (Hartree/Particle)
 Thermal correction to Energy=                    0.389777
 Thermal correction to Enthalpy=                  0.390721
 Thermal correction to Gibbs Free Energy=         0.325919
 Sum of electronic and zero-point Energies=          -1297.603463
 Sum of electronic and thermal Energies=             -1297.585137
 Sum of electronic and thermal Enthalpies=           -1297.584193
 Sum of electronic and thermal Free Energies=        -1297.648995

                     E (Thermal)             CV                S
                      KCal/Mol        Cal/Mol-Kelvin    Cal/Mol-Kelvin
 Total                  244.589             75.970            136.388
 Electronic               0.000              0.000              0.000
 Translational            0.889              2.981             43.384
 Rotational               0.889              2.981             35.150
 Vibrational            242.811             70.009             57.853
 Vibration     1          0.594              1.981              5.303
 Vibration     2          0.597              1.973              4.409
 Vibration     3          0.601              1.960              3.781
 Vibration     4          0.604              1.950              3.480
 Vibration     5          0.611              1.924              2.962
 Vibration     6          0.618              1.902              2.667
 Vibration     7          0.625              1.879              2.432
 Vibration     8          0.633              1.855              2.240
 Vibration     9          0.644              1.819              2.006
 Vibration    10          0.653              1.793              1.867
 Vibration    11          0.674              1.727              1.592
 Vibration    12          0.679              1.712              1.539
 Vibration    13          0.686              1.693              1.477
 Vibration    14          0.693              1.672              1.412
 Vibration    15          0.697              1.661              1.379
 Vibration    16          0.702              1.648              1.343
 Vibration    17          0.711              1.622              1.276
 Vibration    18          0.725              1.581              1.179
 Vibration    19          0.735              1.554              1.121
 Vibration    20          0.745              1.527              1.067
 Vibration    21          0.775              1.446              0.922
 Vibration    22          0.783              1.427              0.892
 Vibration    23          0.794              1.398              0.849
 Vibration    24          0.797              1.390              0.837
 Vibration    25          0.828              1.315              0.735
 Vibration    26          0.842              1.281              0.694
 Vibration    27          0.864              1.230              0.635
 Vibration    28          0.885              1.184              0.588
 Vibration    29          0.918              1.113              0.519
 Vibration    30          0.942              1.065              0.477
 Vibration    31          0.945              1.058              0.471
 Vibration    32          0.973              1.003              0.427
 Vibration    33          0.978              0.993              0.419

 Normal termination of Gaussian 09 at Wed Mar 23 04:30:37 2016.
