 Gaussian 09, Revision B.01,
 Gaussian 09:  EM64L-G09RevB.01 12-Aug-2010

 -------------------------------------------------
 # freq=raman b3lyp/6-31+g(2d,p) geom=connectivity
 -------------------------------------------------

 -----------------
 550 7697/7697.com
 -----------------
 Symbolic Z-matrix:
 Charge =  0 Multiplicity = 1

                         Standard orientation:
 ---------------------------------------------------------------------
 Center     Atomic      Atomic             Coordinates (Angstroms)
 Number     Number       Type             X           Y           Z
 ---------------------------------------------------------------------
      1          8           0       -5.081245    0.466442   -0.580451
      2          6           0       -3.863253    0.161205    0.114425
      3          6           0       -3.347551   -1.174701   -0.394767
      4          8           0       -4.238278   -2.253306   -0.073739
      5          1           0       -5.111312   -1.933711   -0.439996
      6          6           0       -1.939709   -1.514839    0.065810
      7          8           0       -1.432412   -2.708700   -0.549388
      8          1           0       -2.124100   -3.422796   -0.659799
      9          6           0       -3.336450    2.400218    0.459811
     10          8           0       -2.644869    3.644110    0.641152
     11          1           0       -3.118771    4.525100    0.634986
     12          6           0       -2.752630    1.154268   -0.186643
     13          8           0       -1.427960    0.858398    0.279294
     14          6           0       -0.941800   -0.400431   -0.206977
     15          8           0        0.143847   -0.349418    0.729925
     16          6           0        1.426660   -0.198427    0.105545
     17          6           0        2.025845    1.198534    0.069368
     18          8           0        1.260408    2.096389   -0.747863
     19          1           0        1.356570    3.036464   -0.422501
     20          6           0        3.436658    1.390875   -0.460502
     21          8           0        3.960036    2.720196   -0.327575
     22          1           0        3.237032    3.349954   -0.612646
     23          6           0        2.048278   -2.575799    0.826185
     24          8           0        1.681916   -3.401574   -0.288770
     25          1           0        0.719656   -3.606713   -0.111947
     26          6           0        2.433383   -1.105378    0.795526
     27          8           0        3.694543   -1.002281    0.118961
     28          6           0        4.260008    0.312130    0.224731
     29          8           0        5.422398    0.050283   -0.574739
     30          1           0        6.070738   -0.425614   -0.050546
     31          1           0        4.514432    0.564931    1.232828
     32          1           0        3.418614    1.162861   -1.505769
     33          1           0        2.006339    1.576446    1.070218
     34          1           0        1.330615   -0.532015   -0.906578
     35          1           0        2.559151   -0.767024    1.802799
     36          1           0        1.220353   -2.634131    1.501490
     37          1           0        2.879038   -3.073127    1.281600
     38          1           0       -5.829001    0.311699    0.001370
     39          1           0       -3.660029    2.100200    1.434585
     40          1           0       -4.218429    2.634231   -0.098983
     41          1           0       -2.711454    1.306767   -1.244919
     42          1           0       -4.040070    0.111613    1.168548
     43          1           0       -3.315473   -1.105859   -1.462068
     44          1           0       -1.971173   -1.676999    1.122983
     45          1           0       -0.616435   -0.352510   -1.225181
 ---------------------------------------------------------------------

 SCF Done:  E(RB3LYP) =  -1297.94136568     A.U. after   14 cycles

 The electronic state is 1-A.
 Alpha  occ. eigenvalues --  -19.19432 -19.18264 -19.17657 -19.16847 -19.16706
 Alpha  occ. eigenvalues --  -19.16629 -19.15923 -19.15703 -19.15051 -19.14456
 Alpha  occ. eigenvalues --  -19.14223 -10.30281 -10.28699 -10.26711 -10.26246
 Alpha  occ. eigenvalues --  -10.25889 -10.25254 -10.24454 -10.24293 -10.23987
 Alpha  occ. eigenvalues --  -10.23912 -10.23871 -10.22139  -1.09649  -1.07662
 Alpha  occ. eigenvalues --   -1.07398  -1.05308  -1.04384  -1.03378  -1.02268
 Alpha  occ. eigenvalues --   -1.01405  -1.00955  -1.00701  -0.99460  -0.82624
 Alpha  occ. eigenvalues --   -0.81130  -0.78690  -0.77578  -0.71574  -0.69958
 Alpha  occ. eigenvalues --   -0.67147  -0.64459  -0.63035  -0.61798  -0.61520
 Alpha  occ. eigenvalues --   -0.59807  -0.57032  -0.56162  -0.54774  -0.53787
 Alpha  occ. eigenvalues --   -0.53448  -0.53406  -0.52610  -0.52197  -0.50498
 Alpha  occ. eigenvalues --   -0.50194  -0.49172  -0.48195  -0.47921  -0.47051
 Alpha  occ. eigenvalues --   -0.46531  -0.45291  -0.44175  -0.43333  -0.42942
 Alpha  occ. eigenvalues --   -0.42145  -0.41913  -0.40316  -0.39583  -0.39280
 Alpha  occ. eigenvalues --   -0.38675  -0.37201  -0.37186  -0.35918  -0.35835
 Alpha  occ. eigenvalues --   -0.35262  -0.34587  -0.34165  -0.33918  -0.33082
 Alpha  occ. eigenvalues --   -0.31970  -0.30691  -0.30427  -0.29884  -0.29800
 Alpha  occ. eigenvalues --   -0.28885  -0.28344  -0.27805  -0.27624  -0.27125
 Alpha  occ. eigenvalues --   -0.25991
 Alpha virt. eigenvalues --   -0.03331  -0.02172  -0.01255  -0.00601   0.00108
 Alpha virt. eigenvalues --    0.00760   0.02134   0.02179   0.02497   0.03517
 Alpha virt. eigenvalues --    0.04103   0.04661   0.05192   0.05447   0.05665

 Mulliken atomic charges:
              1
     1  O   -0.547079
     2  C   -0.240665
     3  C    0.146329
     4  O   -0.579950
     5  H    0.337842
     6  C    0.173143
     7  O   -0.614126
     8  H    0.369141
     9  C   -0.465205
    10  O   -0.579594
    11  H    0.342924
    12  C    0.475094
    13  O   -0.157890
    14  C    0.266156
    15  O   -0.224517
    16  C    0.104226
    17  C    0.102266
    18  O   -0.573732
    19  H    0.321734
    20  C    0.014651
    21  O   -0.520728
    22  H    0.303574
    23  C   -0.366079
    24  O   -0.468228
    25  H    0.344365
    26  C    0.022759
    27  O   -0.246041
    28  C    0.261287
    29  O   -0.496694
    30  H    0.319543
    31  H    0.126894
    32  H    0.137376
    33  H    0.122824
    34  H    0.120409
    35  H    0.114056
    36  H    0.139788
    37  H    0.139525
    38  H    0.341786
    39  H    0.123090
    40  H    0.159402
    41  H    0.116870
    42  H    0.129507
    43  H    0.131567
    44  H    0.134929
    45  H    0.137473
 Sum of Mulliken atomic charges =   0.00000

 Dipole moment (field-independent basis, Debye):
    X=             -7.3365    Y=              1.5901    Z=              2.6802  Tot=              7.9709
 Quadrupole moment (field-independent basis, Debye-Ang):
   XX=           -120.1266   YY=           -134.4235   ZZ=           -139.2999
   XY=             -1.6557   XZ=             10.4722   YZ=             -3.2053

  Exact polarizability: 225.279   2.276 203.479   1.337   0.115 146.689
 Approx polarizability: 270.134   2.059 266.534   0.989   2.996 241.051

 ******    7 imaginary frequencies (negative Signs) ******

                     1                      2                      3
                     A                      A                      A
 Frequencies --  -322.7960              -282.0787              -218.7731
 Red. masses --     1.6927                 1.5286                 1.0821
 Frc consts  --     0.1039                 0.0717                 0.0305
 IR Inten    --     9.8465                 2.2291               106.6170
 Raman Activ --     0.1293                 0.1164                 1.7573

                     4                      5                      6
                     A                      A                      A
 Frequencies --  -175.5585              -102.1855               -72.5365
 Red. masses --     1.3060                 5.8492                 6.4568
 Frc consts  --     0.0237                 0.0360                 0.0200
 IR Inten    --   114.9933                 0.3431                 2.9298
 Raman Activ --     0.8302                 0.0377                 0.1024

                     7                      8                      9
                     A                      A                      A
 Frequencies --   -39.5874                14.1127                50.3244
 Red. masses --     6.2023                 6.9839                 6.5209
 Frc consts  --     0.0057                 0.0008                 0.0097
 IR Inten    --     2.6157                 0.8002                 0.8465
 Raman Activ --     0.2431                 0.2544                 0.0569

                    10                     11                     12
                     A                      A                      A
 Frequencies --    58.4302                76.4274                79.4980
 Red. masses --     6.1079                 6.0199                 6.0353
 Frc consts  --     0.0123                 0.0207                 0.0225
 IR Inten    --     0.0878                 1.0984                 4.3735
 Raman Activ --     0.0947                 0.1718                 0.0563

                    13                     14                     15
                     A                      A                      A
 Frequencies --   122.6567               146.9436               168.2411
 Red. masses --     6.2358                 6.5781                 6.5718
 Frc consts  --     0.0553                 0.0837                 0.1096
 IR Inten    --     4.0651                 0.1303                 2.2648
 Raman Activ --     0.6420                 0.7412                 0.3451

                    16                     17                     18
                     A                      A                      A
 Frequencies --   178.7911               217.4102               232.7016
 Red. masses --     6.1167                 6.1630                 6.8210
 Frc consts  --     0.1152                 0.1716                 0.2176
 IR Inten    --     3.0007                 0.2910                 0.5023
 Raman Activ --     0.3871                 1.6875                 2.6955

                    19                     20                     21
                     A                      A                      A
 Frequencies --   262.7572               276.7749               295.6761
 Red. masses --     4.7146                 4.8552                 5.1864
 Frc consts  --     0.1918                 0.2191                 0.2671
 IR Inten    --     2.6099                 9.8966                 4.8811
 Raman Activ --     0.4015                 0.2283                 0.5682

                    22                     23                     24
                     A                      A                      A
 Frequencies --   297.0299               316.8672               325.0459
 Red. masses --     5.5231                 6.3999                 5.0575
 Frc consts  --     0.2871                 0.3786                 0.3148
 IR Inten    --     7.1552                 9.3299                 5.4626
 Raman Activ --     0.6374                 0.3404                 0.3762

                    25                     26                     27
                     A                      A                      A
 Frequencies --   338.9905               356.3779               379.0002
 Red. masses --     5.3342                 7.5718                 3.6431
 Frc consts  --     0.3612                 0.5666                 0.3083
 IR Inten    --     5.2911                 2.2157                 7.6740
 Raman Activ --     6.1538                 1.5670                 3.0874

                    28                     29                     30
                     A                      A                      A
 Frequencies --   406.8818               417.3463               429.9207
 Red. masses --     4.4242                 4.7693                 5.6690
 Frc consts  --     0.4315                 0.4894                 0.6173
 IR Inten    --    14.1992                 2.7696                 8.2273
 Raman Activ --     2.3084                 1.9886                 2.3855

                    31                     32                     33
                     A                      A                      A
 Frequencies --   456.0822               481.6274               500.3701
 Red. masses --     4.0817                 5.0129                 3.1345
 Frc consts  --     0.5002                 0.6851                 0.4624
 IR Inten    --    18.8444                 5.1035                24.3799
 Raman Activ --     2.5299                 3.2934                 1.2906

                    34                     35                     36
                     A                      A                      A
 Frequencies --   536.2993               545.9380               555.0580
 Red. masses --     4.4307                 3.1720                 2.2338
 Frc consts  --     0.7508                 0.5570                 0.4055
 IR Inten    --     7.8829                51.8173                20.5583
 Raman Activ --     2.9118                 2.4273                 1.6732

                    37                     38                     39
                     A                      A                      A
 Frequencies --   571.9743               594.2822               614.8861
 Red. masses --     2.3597                 4.5661                 3.0867
 Frc consts  --     0.4548                 0.9501                 0.6876
 IR Inten    --    32.2001                20.5859                 6.5661
 Raman Activ --     0.4719                 3.5805                 0.3774

                    40                     41                     42
                     A                      A                      A
 Frequencies --   646.3136               665.3698               674.2998
 Red. masses --     2.5078                 1.1098                 3.8207
 Frc consts  --     0.6172                 0.2895                 1.0235
 IR Inten    --    47.9607               170.1993                19.0218
 Raman Activ --     1.1712                 1.7066                 0.2727

                    43                     44                     45
                     A                      A                      A
 Frequencies --   689.4604               702.5324               709.6636
 Red. masses --     3.1105                 1.0743                 1.1489
 Frc consts  --     0.8712                 0.3124                 0.3409
 IR Inten    --     4.5296                16.0187                24.9714
 Raman Activ --     1.5437                 0.5552                 0.8507

                    46                     47                     48
                     A                      A                      A
 Frequencies --   735.6742               777.5226               831.6359
 Red. masses --     1.1162                 1.0936                 2.7157
 Frc consts  --     0.3559                 0.3895                 1.1066
 IR Inten    --   217.8330                81.7001                14.3545
 Raman Activ --     1.9384                 1.5920                 6.3665

                    49                     50                     51
                     A                      A                      A
 Frequencies --   847.5597               870.0924               925.5913
 Red. masses --     2.9962                 2.6624                 6.3972
 Frc consts  --     1.2681                 1.1876                 3.2291
 IR Inten    --    12.1536                 8.8157               135.7173
 Raman Activ --     7.1249                 1.8681                 2.7739

                    52                     53                     54
                     A                      A                      A
 Frequencies --   953.6137               959.0130               988.4389
 Red. masses --     6.0129                 4.8945                 6.3329
 Frc consts  --     3.2217                 2.6522                 3.6455
 IR Inten    --   253.5472                46.4302               156.3644
 Raman Activ --     2.8799                 3.9718                 1.0641

                    55                     56                     57
                     A                      A                      A
 Frequencies --   996.1168              1017.1204              1020.6039
 Red. masses --     5.0335                 4.0155                 4.0845
 Frc consts  --     2.9427                 2.4476                 2.5067
 IR Inten    --    40.0695                87.8094               103.2622
 Raman Activ --     1.7084                 4.4068                 2.6445

                    58                     59                     60
                     A                      A                      A
 Frequencies --  1033.7877              1034.7983              1050.1871
 Red. masses --     4.6729                 3.0125                 2.7876
 Frc consts  --     2.9424                 1.9006                 1.8114
 IR Inten    --   155.8350               228.5562                63.4829
 Raman Activ --     6.9137                 2.3659                13.0099

                    61                     62                     63
                     A                      A                      A
 Frequencies --  1060.2644              1066.6653              1086.3367
 Red. masses --     6.3234                 3.8303                 3.3092
 Frc consts  --     4.1882                 2.5677                 2.3009
 IR Inten    --    46.8343                24.4833                95.1302
 Raman Activ --     1.9922                 5.5070                 5.8854

                    64                     65                     66
                     A                      A                      A
 Frequencies --  1089.8818              1093.5794              1104.0978
 Red. masses --     3.3772                 2.9835                 2.5106
 Frc consts  --     2.3636                 2.1022                 1.8032
 IR Inten    --    14.0646                34.9258                19.4600
 Raman Activ --    16.3794                 1.7245                 3.8084

                    67                     68                     69
                     A                      A                      A
 Frequencies --  1119.5135              1123.7510              1127.0971
 Red. masses --     2.8832                 2.7448                 2.9899
 Frc consts  --     2.1291                 2.0422                 2.2378
 IR Inten    --    10.2909                13.3261                79.8366
 Raman Activ --     4.4984                 4.4821                 3.3728

                    70                     71                     72
                     A                      A                      A
 Frequencies --  1141.4002              1146.9834              1160.9173
 Red. masses --     2.6449                 2.3651                 2.1147
 Frc consts  --     2.0302                 1.8332                 1.6792
 IR Inten    --    96.9944                30.0189                 3.4503
 Raman Activ --     3.7251                 4.2368                 2.4831

                    73                     74                     75
                     A                      A                      A
 Frequencies --  1166.8473              1174.4181              1187.1841
 Red. masses --     1.6767                 2.0435                 1.7813
 Frc consts  --     1.3451                 1.6606                 1.4792
 IR Inten    --    21.0908                16.1533                18.3415
 Raman Activ --     3.0905                 4.9857                 3.4431

                    76                     77                     78
                     A                      A                      A
 Frequencies --  1195.5078              1208.8885              1209.9748
 Red. masses --     1.6799                 1.4106                 1.4197
 Frc consts  --     1.4146                 1.2146                 1.2246
 IR Inten    --     4.9376                10.4696                 1.7944
 Raman Activ --     0.9413                 1.1637                 1.2874

                    79                     80                     81
                     A                      A                      A
 Frequencies --  1215.1015              1235.6589              1243.3383
 Red. masses --     1.2521                 1.2777                 1.2272
 Frc consts  --     1.0892                 1.1494                 1.1178
 IR Inten    --    26.9803                38.1146                24.0107
 Raman Activ --     4.1301                 3.3448                 2.4075

                    82                     83                     84
                     A                      A                      A
 Frequencies --  1253.8157              1273.1047              1273.5225
 Red. masses --     1.3141                 1.2261                 1.2864
 Frc consts  --     1.2172                 1.1709                 1.2292
 IR Inten    --     8.7363                 2.1900                26.1339
 Raman Activ --     1.4106                 1.4605                 2.6438

                    85                     86                     87
                     A                      A                      A
 Frequencies --  1292.0422              1302.2691              1307.8704
 Red. masses --     1.2152                 1.2621                 1.5109
 Frc consts  --     1.1952                 1.2611                 1.5227
 IR Inten    --     1.0082                 4.5528                21.5840
 Raman Activ --     4.1642                 4.6527                 8.9189

                    88                     89                     90
                     A                      A                      A
 Frequencies --  1321.8718              1330.0359              1332.9678
 Red. masses --     1.2564                 1.5305                 1.3250
 Frc consts  --     1.2935                 1.5952                 1.3871
 IR Inten    --    55.7607                 2.1714                16.7721
 Raman Activ --     5.8041                 2.2591                 2.5284

                    91                     92                     93
                     A                      A                      A
 Frequencies --  1337.2070              1346.2427              1356.2500
 Red. masses --     1.2723                 1.2637                 1.2899
 Frc consts  --     1.3404                 1.3494                 1.3980
 IR Inten    --    21.3177                17.3565                13.4141
 Raman Activ --     5.6567                 6.9121                 1.7338

                    94                     95                     96
                     A                      A                      A
 Frequencies --  1365.6437              1369.9967              1378.8380
 Red. masses --     1.4626                 1.4148                 1.2025
 Frc consts  --     1.6072                 1.5645                 1.3470
 IR Inten    --    19.0890                36.1293                18.4587
 Raman Activ --     2.5333                 2.5944                 2.3991

                    97                     98                     99
                     A                      A                      A
 Frequencies --  1386.4427              1402.0895              1405.4196
 Red. masses --     1.3428                 1.1927                 1.2481
 Frc consts  --     1.5207                 1.3814                 1.4525
 IR Inten    --     5.1995                 3.0306                28.8767
 Raman Activ --     6.4469                 8.7756                 4.3105

                   100                    101                    102
                     A                      A                      A
 Frequencies --  1420.6233              1431.7221              1444.9852
 Red. masses --     1.5021                 1.4257                 1.1670
 Frc consts  --     1.7861                 1.7219                 1.4357
 IR Inten    --    38.7376                 1.7318                 6.0786
 Raman Activ --     0.7336                 5.9657                 1.3641

                   103                    104                    105
                     A                      A                      A
 Frequencies --  1445.5095              1452.8053              1459.8715
 Red. masses --     1.0961                 1.5742                 1.3508
 Frc consts  --     1.3494                 1.9576                 1.6962
 IR Inten    --    16.4500                47.1157                56.9190
 Raman Activ --     2.6719                 4.3691                 1.9907

                   106                    107                    108
                     A                      A                      A
 Frequencies --  1462.3326              1517.2830              3251.1968
 Red. masses --     1.1111                 1.1386                 1.0621
 Frc consts  --     1.3998                 1.5444                 6.6146
 IR Inten    --     4.5141                39.9935                40.4262
 Raman Activ --     2.7223                 1.3298                71.7084

                   109                    110                    111
                     A                      A                      A
 Frequencies --  3254.7550              3269.6897              3269.8659
 Red. masses --     1.0608                 1.0818                 1.0821
 Frc consts  --     6.6207                 6.8142                 6.8170
 IR Inten    --    18.4262                 1.9084                 3.1502
 Raman Activ --    80.7352                33.5518                45.0907

                   112                    113                    114
                     A                      A                      A
 Frequencies --  3275.3472              3275.5693              3284.5503
 Red. masses --     1.0820                 1.0810                 1.0843
 Frc consts  --     6.8387                 6.8336                 6.8920
 IR Inten    --    11.6810                16.2333                15.8942
 Raman Activ --   166.2269                66.2618               155.0876

                   115                    116                    117
                     A                      A                      A
 Frequencies --  3287.0197              3289.6088              3296.8107
 Red. masses --     1.0845                 1.0856                 1.0876
 Frc consts  --     6.9035                 6.9214                 6.9651
 IR Inten    --     5.4504                 5.0150                22.6947
 Raman Activ --    21.3956                 6.2028                46.6756

                   118                    119                    120
                     A                      A                      A
 Frequencies --  3300.5828              3307.9568              3309.8852
 Red. masses --     1.0867                 1.0890                 1.1028
 Frc consts  --     6.9751                 7.0212                 7.1182
 IR Inten    --    47.0209                22.6835                66.0723
 Raman Activ --     5.9049                39.0266                64.6965

                   121                    122                    123
                     A                      A                      A
 Frequencies --  3311.7180              3358.0395              3359.8831
 Red. masses --     1.0958                 1.0661                 1.0704
 Frc consts  --     7.0811                 7.0833                 7.1193
 IR Inten    --    77.3159                 5.8758                65.3214
 Raman Activ --    34.7713                13.7312               225.0944

                   124                    125                    126
                     A                      A                      A
 Frequencies --  3366.1096              3367.9434              3373.4594
 Red. masses --     1.0661                 1.0695                 1.0669
 Frc consts  --     7.1171                 7.1476                 7.1539
 IR Inten    --    37.5111               122.3478                27.4165
 Raman Activ --   153.1636               165.8626                41.4731

                   127                    128                    129
                     A                      A                      A
 Frequencies --  3376.0605              3886.4735              3886.9070
 Red. masses --     1.0648                 1.0668                 1.0675
 Frc consts  --     7.1507                 9.4938                 9.5019
 IR Inten    --    34.8677                56.0799                62.7897
 Raman Activ --   100.3044               121.6484               117.4390

 - Thermochemistry -
 -------------------
 Temperature   298.150 Kelvin.  Pressure   1.00000 Atm.
 Atom     1 has atomic number  8 and mass  15.99491

 Molecular mass:   342.11621 amu.
 Principal axes and moments of inertia in atomic units:
                           1         2         3
     Eigenvalues --  4600.67293********************
           X            0.99999  -0.00456   0.00229
           Y            0.00457   0.99998  -0.00331
           Z           -0.00228   0.00332   0.99999
 This molecule is an asymmetric top.
 Rotational symmetry number  1.
 Warning -- assumption of classical behavior for rotation
           may cause significant error
 Rotational temperatures (Kelvin)      0.01883     0.00718     0.00541
 Rotational constants (GHZ):           0.39228     0.14952     0.11277
    7 imaginary frequencies ignored.
 Zero-point vibrational energy     970301.4 (Joules/Mol)
                                  231.90759 (Kcal/Mol)
 Warning -- explicit consideration of  32 degrees of freedom as
           vibrations may cause significant error
 Vibrational temperatures:     20.31    72.41    84.07   109.96   114.38
          (Kelvin)            176.48   211.42   242.06   257.24   312.80
                              334.81   378.05   398.22   425.41   427.36
                              455.90   467.67   487.73   512.75   545.30
                              585.41   600.47   618.56   656.20   692.95
                              719.92   771.61   785.48   798.60   822.94
                              855.04   884.68   929.90   957.32   970.17
                              991.98  1010.79  1021.05  1058.47  1118.68
                             1196.54  1219.45  1251.87  1331.72  1372.04
                             1379.80  1422.14  1433.19  1463.41  1468.42
                             1487.39  1488.84  1510.98  1525.48  1534.69
                             1562.99  1568.09  1573.41  1588.55  1610.73
                             1616.82  1621.64  1642.22  1650.25  1670.30
                             1678.83  1689.72  1708.09  1720.07  1739.32
                             1740.88  1748.26  1777.84  1788.88  1803.96
                             1831.71  1832.31  1858.96  1873.67  1881.73
                             1901.88  1913.62  1917.84  1923.94  1936.94
                             1951.34  1964.85  1971.12  1983.84  1994.78
                             2017.29  2022.08  2043.96  2059.93  2079.01
                             2079.76  2090.26  2100.43  2103.97  2183.03
                             4677.74  4682.86  4704.35  4704.60  4712.49
                             4712.81  4725.73  4729.28  4733.01  4743.37
                             4748.80  4759.41  4762.18  4764.82  4831.46
                             4834.12  4843.07  4845.71  4853.65  4857.39
                             5591.76  5592.39

 Zero-point correction=                           0.369568 (Hartree/Particle)
 Thermal correction to Energy=                    0.388539
 Thermal correction to Enthalpy=                  0.389483
 Thermal correction to Gibbs Free Energy=         0.321541
 Sum of electronic and zero-point Energies=          -1297.571797
 Sum of electronic and thermal Energies=             -1297.552827
 Sum of electronic and thermal Enthalpies=           -1297.551883
 Sum of electronic and thermal Free Energies=        -1297.619824

                     E (Thermal)             CV                S
                      KCal/Mol        Cal/Mol-Kelvin    Cal/Mol-Kelvin
 Total                  243.812             76.916            142.995
 Electronic               0.000              0.000              0.000
 Translational            0.889              2.981             43.384
 Rotational               0.889              2.981             35.140
 Vibrational            242.034             70.954             64.470
 Vibration     1          0.593              1.986              7.327
 Vibration     2          0.595              1.977              4.805
 Vibration     3          0.596              1.974              4.510
 Vibration     4          0.599              1.965              3.981
 Vibration     5          0.600              1.963              3.903
 Vibration     6          0.610              1.930              3.058
 Vibration     7          0.617              1.906              2.711
 Vibration     8          0.625              1.882              2.455
 Vibration     9          0.629              1.868              2.341
 Vibration    10          0.646              1.815              1.981
 Vibration    11          0.653              1.791              1.858
 Vibration    12          0.670              1.741              1.643
 Vibration    13          0.678              1.716              1.554
 Vibration    14          0.690              1.682              1.441
 Vibration    15          0.691              1.679              1.434
 Vibration    16          0.704              1.641              1.326
 Vibration    17          0.709              1.625              1.285
 Vibration    18          0.719              1.598              1.217
 Vibration    19          0.732              1.562              1.138
 Vibration    20          0.749              1.515              1.043
 Vibration    21          0.772              1.455              0.938
 Vibration    22          0.780              1.433              0.901
 Vibration    23          0.791              1.405              0.859
 Vibration    24          0.814              1.347              0.778
 Vibration    25          0.838              1.291              0.706
 Vibration    26          0.856              1.249              0.657
 Vibration    27          0.891              1.170              0.573
 Vibration    28          0.901              1.149              0.553
 Vibration    29          0.910              1.129              0.534
 Vibration    30          0.928              1.092              0.500
 Vibration    31          0.952              1.044              0.460
 Vibration    32          0.974              1.000              0.425

 Normal termination of Gaussian 09 at Mon Apr  4 21:11:31 2016.
