 Gaussian 09, Revision B.01,
 Gaussian 09:  EM64L-G09RevB.01 12-Aug-2010

 -------------------------------------------------
 # freq=raman b3lyp/6-31+g(2d,p) geom=connectivity
 -------------------------------------------------

 -----------------
 400 5151/5151.com
 -----------------
 Symbolic Z-matrix:
 Charge =  0 Multiplicity = 1

                         Standard orientation:
 ---------------------------------------------------------------------
 Center     Atomic      Atomic             Coordinates (Angstroms)
 Number     Number       Type             X           Y           Z
 ---------------------------------------------------------------------
      1          8           0       -5.038538   -0.478705    0.218926
      2          6           0       -3.745344   -0.115362   -0.285704
      3          6           0       -3.305798    1.252984    0.210840
      4          8           0       -4.225457    2.265657   -0.220972
      5          1           0       -5.131630    1.843593   -0.183330
      6          6           0       -1.888177    1.688589   -0.118503
      7          8           0       -1.445289    2.680267    0.819851
      8          1           0       -0.782429    3.216663    0.297479
      9          6           0       -2.974562   -2.578076   -0.147005
     10          8           0       -4.095535   -3.289966    0.395995
     11          1           0       -3.767787   -4.232438    0.335776
     12          6           0       -2.738587   -1.126810    0.239460
     13          8           0       -1.442620   -0.736823   -0.235819
     14          6           0       -0.925083    0.544014    0.153885
     15          8           0        0.270425    0.585122   -0.638325
     16          6           0        1.482447    0.216157    0.034515
     17          6           0        1.910452   -1.177643   -0.396811
     18          8           0        0.948435   -2.204164   -0.115032
     19          1           0        0.035045   -1.837116   -0.287662
     20          6           0        3.284427   -1.566185    0.123435
     21          8           0        3.855032   -2.774751   -0.397906
     22          1           0        4.760556   -3.000590   -0.038207
     23          6           0        2.429740    2.630993    0.077311
     24          8           0        1.409192    3.473599   -0.479100
     25          1           0        1.600384    4.418699   -0.214522
     26          6           0        2.611825    1.172516   -0.310561
     27          8           0        3.894962    0.817108    0.223452
     28          6           0        4.377410   -0.516675    0.005007
     29          8           0        5.549031   -0.628462    0.826562
     30          1           0        6.332001   -0.611475    0.271343
     31          1           0       -5.651798   -0.576527   -0.513156
     32          1           0       -2.093697   -3.123879    0.119595
     33          1           0       -3.064627   -2.611224   -1.212692
     34          1           0       -2.734378   -1.065508    1.307695
     35          1           0       -3.753300   -0.130396   -1.355568
     36          1           0       -3.369162    1.218871    1.278418
     37          1           0       -1.806055    2.038244   -1.126420
     38          1           0       -0.668514    0.527906    1.192544
     39          1           0        3.362916    3.115214   -0.121717
     40          1           0        2.288881    2.646141    1.137891
     41          1           0        2.706871    1.150253   -1.376099
     42          1           0        1.318952    0.226293    1.091901
     43          1           0        1.997819   -1.140525   -1.462592
     44          1           0        3.153564   -1.734173    1.172032
     45          1           0        4.716790   -0.556090   -1.008979
 ---------------------------------------------------------------------

 SCF Done:  E(RB3LYP) =  -1297.98088579     A.U. after   13 cycles

 The electronic state is 1-A.
 Alpha  occ. eigenvalues --  -19.18170 -19.18064 -19.17982 -19.17590 -19.17557
 Alpha  occ. eigenvalues --  -19.17091 -19.16482 -19.15927 -19.15700 -19.15687
 Alpha  occ. eigenvalues --  -19.13892 -10.30485 -10.30365 -10.25807 -10.25703
 Alpha  occ. eigenvalues --  -10.25575 -10.25531 -10.25379 -10.25040 -10.24630
 Alpha  occ. eigenvalues --  -10.24589 -10.24448 -10.24237  -1.10014  -1.08504
 Alpha  occ. eigenvalues --   -1.05837  -1.04217  -1.03718  -1.03546  -1.03025
 Alpha  occ. eigenvalues --   -1.02853  -1.02409  -1.01747  -1.00523  -0.82230
 Alpha  occ. eigenvalues --   -0.80413  -0.79096  -0.78451  -0.71691  -0.70288
 Alpha  occ. eigenvalues --   -0.67732  -0.65168  -0.62904  -0.62849  -0.61142
 Alpha  occ. eigenvalues --   -0.59845  -0.56330  -0.55856  -0.55179  -0.54500
 Alpha  occ. eigenvalues --   -0.54050  -0.53326  -0.53097  -0.52009  -0.51168
 Alpha  occ. eigenvalues --   -0.50351  -0.50045  -0.49750  -0.49134  -0.46224
 Alpha  occ. eigenvalues --   -0.45948  -0.44846  -0.44606  -0.43898  -0.43570
 Alpha  occ. eigenvalues --   -0.43097  -0.42086  -0.41781  -0.40222  -0.38725
 Alpha  occ. eigenvalues --   -0.37964  -0.37481  -0.37068  -0.36482  -0.36056
 Alpha  occ. eigenvalues --   -0.35588  -0.35459  -0.35018  -0.34264  -0.33897
 Alpha  occ. eigenvalues --   -0.32986  -0.31765  -0.30598  -0.29929  -0.29413
 Alpha  occ. eigenvalues --   -0.29204  -0.29047  -0.28529  -0.27645  -0.27101
 Alpha  occ. eigenvalues --   -0.26489
 Alpha virt. eigenvalues --   -0.02098  -0.02024  -0.01720  -0.00476   0.00736
 Alpha virt. eigenvalues --    0.01071   0.01710   0.02402   0.02865   0.03166
 Alpha virt. eigenvalues --    0.03676   0.04151   0.04818   0.05272   0.05632

 Mulliken atomic charges:
              1
     1  O   -0.534182
     2  C   -0.078382
     3  C    0.315275
     4  O   -0.567568
     5  H    0.336284
     6  C   -0.148991
     7  O   -0.504127
     8  H    0.362495
     9  C   -0.269501
    10  O   -0.491517
    11  H    0.331907
    12  C    0.177186
    13  O   -0.243661
    14  C    0.153566
    15  O   -0.185011
    16  C    0.248814
    17  C    0.173981
    18  O   -0.571338
    19  H    0.384713
    20  C    0.162650
    21  O   -0.549250
    22  H    0.341784
    23  C   -0.260919
    24  O   -0.566108
    25  H    0.346712
    26  C   -0.112241
    27  O   -0.230318
    28  C    0.013506
    29  O   -0.515931
    30  H    0.336157
    31  H    0.338609
    32  H    0.145727
    33  H    0.140095
    34  H    0.114202
    35  H    0.122896
    36  H    0.127761
    37  H    0.148161
    38  H    0.126346
    39  H    0.145235
    40  H    0.147992
    41  H    0.117936
    42  H    0.110371
    43  H    0.116664
    44  H    0.126867
    45  H    0.115154
 Sum of Mulliken atomic charges =   0.00000

 Dipole moment (field-independent basis, Debye):
    X=              1.6947    Y=              0.7315    Z=             -1.9727  Tot=              2.7016
 Quadrupole moment (field-independent basis, Debye-Ang):
   XX=           -118.8791   YY=           -134.8034   ZZ=           -141.8018
   XY=             11.4770   XZ=              4.7428   YZ=             -0.4175

  Exact polarizability: 233.360  -2.121 199.253   1.550   0.456 144.381
 Approx polarizability: 274.834  -0.742 257.609   0.978  -0.273 239.404

 ******    7 imaginary frequencies (negative Signs) ******

                     1                      2                      3
                     A                      A                      A
 Frequencies --  -307.2346              -296.5671              -183.7179
 Red. masses --     1.7285                 1.7112                 1.2778
 Frc consts  --     0.0961                 0.0887                 0.0254
 IR Inten    --     4.2162                 4.5553                96.4681
 Raman Activ --     0.0511                 0.1014                 0.9525

                     4                      5                      6
                     A                      A                      A
 Frequencies --  -156.4428               -90.4558               -59.6900
 Red. masses --     1.3233                 6.1233                 6.1722
 Frc consts  --     0.0191                 0.0295                 0.0130
 IR Inten    --    92.2544                 4.6597                 0.1730
 Raman Activ --     1.0584                 0.0547                 0.0648

                     7                      8                      9
                     A                      A                      A
 Frequencies --   -31.5063                41.1203                48.7588
 Red. masses --     6.3096                 6.4860                 5.7894
 Frc consts  --     0.0037                 0.0065                 0.0081
 IR Inten    --     1.2548                 1.0319                 1.0092
 Raman Activ --     0.0335                 0.0430                 0.2364

                    10                     11                     12
                     A                      A                      A
 Frequencies --    51.9197                67.6520                80.1366
 Red. masses --     6.8187                 5.8157                 6.2369
 Frc consts  --     0.0108                 0.0157                 0.0236
 IR Inten    --     1.1285                 3.1755                 2.2806
 Raman Activ --     0.1282                 0.0728                 0.0561

                    13                     14                     15
                     A                      A                      A
 Frequencies --   117.6129               155.1780               170.0123
 Red. masses --     6.0336                 5.6569                 6.2811
 Frc consts  --     0.0492                 0.0803                 0.1070
 IR Inten    --     2.4300                 1.9347                 0.4662
 Raman Activ --     0.3858                 0.0529                 0.6908

                    16                     17                     18
                     A                      A                      A
 Frequencies --   170.6114               227.8349               242.0050
 Red. masses --     7.6416                 6.0638                 4.6216
 Frc consts  --     0.1311                 0.1855                 0.1595
 IR Inten    --     0.3143                 1.5376                 9.2042
 Raman Activ --     0.9503                 1.1037                 0.9032

                    19                     20                     21
                     A                      A                      A
 Frequencies --   270.8106               286.2837               289.0323
 Red. masses --     4.2833                 4.9013                 4.1492
 Frc consts  --     0.1851                 0.2367                 0.2042
 IR Inten    --     2.0232                 2.7624                 1.2622
 Raman Activ --     0.2442                 0.1009                 0.1635

                    22                     23                     24
                     A                      A                      A
 Frequencies --   302.0407               308.6974               320.4402
 Red. masses --     5.7117                 4.9340                 5.6960
 Frc consts  --     0.3070                 0.2770                 0.3446
 IR Inten    --     9.8067                 3.9168                 7.0753
 Raman Activ --     0.7240                 2.0051                 1.5928

                    25                     26                     27
                     A                      A                      A
 Frequencies --   331.4845               346.0779               376.6472
 Red. masses --     6.7317                 5.3017                 5.6994
 Frc consts  --     0.4358                 0.3741                 0.4764
 IR Inten    --     3.0964                 8.3283                 0.7393
 Raman Activ --     8.7416                 0.6368                 0.6611

                    28                     29                     30
                     A                      A                      A
 Frequencies --   392.3717               404.8968               421.9261
 Red. masses --     4.6076                 6.1490                 5.9869
 Frc consts  --     0.4179                 0.5939                 0.6280
 IR Inten    --    21.3053                 1.0044                 4.3544
 Raman Activ --     4.0148                 7.1620                 1.6783

                    31                     32                     33
                     A                      A                      A
 Frequencies --   433.6126               460.0090               482.9897
 Red. masses --     4.0276                 4.4672                 4.0469
 Frc consts  --     0.4462                 0.5569                 0.5562
 IR Inten    --     0.5142                11.0689                10.7756
 Raman Activ --     1.3047                 1.6483                 1.8600

                    34                     35                     36
                     A                      A                      A
 Frequencies --   496.3141               536.9172               564.6752
 Red. masses --     4.4947                 2.9617                 3.1802
 Frc consts  --     0.6523                 0.5030                 0.5975
 IR Inten    --     3.3618                11.6443                22.8903
 Raman Activ --     4.0016                 1.8197                 1.6671

                    37                     38                     39
                     A                      A                      A
 Frequencies --   571.5648               605.8006               614.9775
 Red. masses --     3.4483                 6.2641                 6.2682
 Frc consts  --     0.6637                 1.3545                 1.3967
 IR Inten    --    28.5264                 3.3131                27.5166
 Raman Activ --     1.0477                 0.6290                 0.8179

                    40                     41                     42
                     A                      A                      A
 Frequencies --   637.8846               663.8574               685.1420
 Red. masses --     4.4097                 1.0544                 5.6069
 Frc consts  --     1.0572                 0.2738                 1.5507
 IR Inten    --    27.0222                89.5851                14.9189
 Raman Activ --     0.5206                 2.0729                 1.0605

                    43                     44                     45
                     A                      A                      A
 Frequencies --   713.3769               723.6277               735.0268
 Red. masses --     1.0659                 1.0873                 1.1084
 Frc consts  --     0.3196                 0.3355                 0.3528
 IR Inten    --   104.4122                87.1965               158.0142
 Raman Activ --     1.5879                 1.1801                 3.0731

                    46                     47                     48
                     A                      A                      A
 Frequencies --   752.1425               779.2018               841.2888
 Red. masses --     1.0679                 1.0632                 1.8224
 Frc consts  --     0.3560                 0.3803                 0.7599
 IR Inten    --    82.5530                88.1921                 5.2068
 Raman Activ --     1.3582                 1.6652                 0.7447

                    49                     50                     51
                     A                      A                      A
 Frequencies --   851.8565               907.5415               939.2303
 Red. masses --     1.8010                 6.3959                 6.4954
 Frc consts  --     0.7700                 3.1037                 3.3760
 IR Inten    --     1.8871               172.1623                93.3528
 Raman Activ --     0.4640                 2.7749                 0.7527

                    52                     53                     54
                     A                      A                      A
 Frequencies --   968.0992               983.0940               990.7979
 Red. masses --     5.2517                 6.2755                 5.1586
 Frc consts  --     2.9000                 3.5734                 2.9837
 IR Inten    --    75.3801               109.0854               169.0867
 Raman Activ --     2.5350                 1.3081                 1.8428

                    55                     56                     57
                     A                      A                      A
 Frequencies --   996.5543              1004.9881              1016.6046
 Red. masses --     6.9220                 5.9007                 6.4256
 Frc consts  --     4.0502                 3.5113                 3.9126
 IR Inten    --   210.7454                55.9404                81.7261
 Raman Activ --     5.3232                 1.3922                 2.7942

                    58                     59                     60
                     A                      A                      A
 Frequencies --  1029.3188              1052.8453              1058.8768
 Red. masses --     5.6428                 3.9036                 5.1338
 Frc consts  --     3.5225                 2.5495                 3.3914
 IR Inten    --   377.0834               123.1458                15.0381
 Raman Activ --     1.6587                 5.2031                 4.7717

                    61                     62                     63
                     A                      A                      A
 Frequencies --  1064.3589              1075.3386              1078.9829
 Red. masses --     3.9176                 4.6549                 5.6061
 Frc consts  --     2.6149                 3.1714                 3.8454
 IR Inten    --    66.6472                61.8086                76.9210
 Raman Activ --     3.6502                 5.2392                 9.5358

                    64                     65                     66
                     A                      A                      A
 Frequencies --  1096.6068              1109.8882              1117.9241
 Red. masses --     3.9339                 3.6778                 2.7292
 Frc consts  --     2.7872                 2.6693                 2.0096
 IR Inten    --     9.9587                26.1540                34.1768
 Raman Activ --    13.4849                 6.4994                 5.2756

                    67                     68                     69
                     A                      A                      A
 Frequencies --  1119.7741              1123.1118              1133.5634
 Red. masses --     2.7563                 2.2240                 2.3945
 Frc consts  --     2.0363                 1.6529                 1.8129
 IR Inten    --    21.8397                38.6717                82.7974
 Raman Activ --     6.7967                 7.5552                 1.3898

                    70                     71                     72
                     A                      A                      A
 Frequencies --  1141.8902              1157.0439              1160.2273
 Red. masses --     2.5044                 2.3351                 2.0893
 Frc consts  --     1.9240                 1.8418                 1.6570
 IR Inten    --    41.8841                 6.0671                12.2192
 Raman Activ --     5.7391                 3.2641                 4.9992

                    73                     74                     75
                     A                      A                      A
 Frequencies --  1177.6583              1182.2366              1188.7698
 Red. masses --     1.5420                 1.7242                 1.7949
 Frc consts  --     1.2600                 1.4199                 1.4945
 IR Inten    --     0.9065                10.0840                 6.8106
 Raman Activ --     0.7613                 1.1929                 0.5516

                    76                     77                     78
                     A                      A                      A
 Frequencies --  1199.9016              1226.2461              1231.3212
 Red. masses --     1.2890                 1.4282                 1.4087
 Frc consts  --     1.0935                 1.2653                 1.2584
 IR Inten    --     8.6806                 4.1650                 5.8779
 Raman Activ --     1.2903                 0.5159                 3.8276

                    79                     80                     81
                     A                      A                      A
 Frequencies --  1245.4234              1264.9550              1268.7267
 Red. masses --     1.1631                 1.2365                 1.3549
 Frc consts  --     1.0629                 1.1657                 1.2849
 IR Inten    --     5.3566                 6.9499                 3.8983
 Raman Activ --     1.3705                 1.1999                 1.2101

                    82                     83                     84
                     A                      A                      A
 Frequencies --  1272.8195              1296.0532              1297.7911
 Red. masses --     1.2278                 1.2998                 1.2389
 Frc consts  --     1.1719                 1.2864                 1.2294
 IR Inten    --     7.5531                 3.1655                44.3746
 Raman Activ --     0.3077                 2.1641                 2.6923

                    85                     86                     87
                     A                      A                      A
 Frequencies --  1299.5404              1304.7270              1308.9245
 Red. masses --     1.2564                 1.2305                 1.2832
 Frc consts  --     1.2501                 1.2341                 1.2953
 IR Inten    --    18.7302                11.7660                 2.0378
 Raman Activ --     1.4007                 1.3136                 5.4876

                    88                     89                     90
                     A                      A                      A
 Frequencies --  1313.6197              1325.1820              1328.6050
 Red. masses --     1.2433                 1.2454                 1.2315
 Frc consts  --     1.2641                 1.2886                 1.2808
 IR Inten    --    29.1941                38.0556                15.0506
 Raman Activ --     9.9073                 6.8128                 9.8013

                    91                     92                     93
                     A                      A                      A
 Frequencies --  1344.4539              1346.2317              1351.9046
 Red. masses --     1.2978                 1.2925                 1.1222
 Frc consts  --     1.3821                 1.3802                 1.2084
 IR Inten    --    35.6012                24.7852                34.1267
 Raman Activ --     4.6155                 3.2801                 1.9482

                    94                     95                     96
                     A                      A                      A
 Frequencies --  1367.0986              1370.7435              1381.0787
 Red. masses --     1.1658                 1.4848                 1.4746
 Frc consts  --     1.2838                 1.6437                 1.6571
 IR Inten    --    33.8682                 4.5112                 2.4040
 Raman Activ --     1.1410                 8.3499                 5.8925

                    97                     98                     99
                     A                      A                      A
 Frequencies --  1394.4875              1397.8352              1405.9863
 Red. masses --     1.3503                 1.4522                 1.4578
 Frc consts  --     1.5470                 1.6718                 1.6979
 IR Inten    --    16.3269                 5.3255                 6.1166
 Raman Activ --     2.5657                 2.6279                 5.5191

                   100                    101                    102
                     A                      A                      A
 Frequencies --  1421.4346              1455.4994              1467.5907
 Red. masses --     1.4698                 1.3742                 1.0753
 Frc consts  --     1.7496                 1.7153                 1.3646
 IR Inten    --    20.0944                58.1609                 2.9178
 Raman Activ --     3.8967                 1.6085                 4.5257

                   103                    104                    105
                     A                      A                      A
 Frequencies --  1469.3553              1474.7873              1497.7310
 Red. masses --     1.1215                 1.3180                 1.2975
 Frc consts  --     1.4266                 1.6889                 1.7148
 IR Inten    --    10.9896                 6.1949                62.2572
 Raman Activ --     4.7573                 0.2855                 2.4551

                   106                    107                    108
                     A                      A                      A
 Frequencies --  1500.9230              1507.9481              3253.2529
 Red. masses --     1.2603                 1.2887                 1.0578
 Frc consts  --     1.6728                 1.7265                 6.5960
 IR Inten    --    36.1998                 8.3665                29.6032
 Raman Activ --     1.0504                 0.5167                87.1663

                   109                    110                    111
                     A                      A                      A
 Frequencies --  3255.4678              3258.9920              3261.5014
 Red. masses --     1.0662                 1.0764                 1.0800
 Frc consts  --     6.6575                 6.7361                 6.7686
 IR Inten    --     5.8618                35.9290                29.4251
 Raman Activ --    45.5466               229.8803                11.1715

                   112                    113                    114
                     A                      A                      A
 Frequencies --  3265.6548              3271.1598              3275.8306
 Red. masses --     1.0785                 1.0824                 1.0819
 Frc consts  --     6.7767                 6.8242                 6.8403
 IR Inten    --    14.4342                28.0383                22.1387
 Raman Activ --    97.6589                17.3546               148.2744

                   115                    116                    117
                     A                      A                      A
 Frequencies --  3277.9972              3288.1983              3291.3861
 Red. masses --     1.0851                 1.0866                 1.0800
 Frc consts  --     6.8696                 6.9223                 6.8934
 IR Inten    --    38.3198                19.8333               219.9644
 Raman Activ --    12.7881                37.0850                30.5322

                   118                    119                    120
                     A                      A                      A
 Frequencies --  3294.3435              3300.2439              3307.2946
 Red. masses --     1.0880                 1.0755                 1.1002
 Frc consts  --     6.9568                 6.9016                 7.0905
 IR Inten    --    12.2562               388.0203                20.4015
 Raman Activ --    10.4155               188.3840                25.4542

                   121                    122                    123
                     A                      A                      A
 Frequencies --  3309.0595              3310.3247              3356.8979
 Red. masses --     1.1029                 1.0913                 1.0654
 Frc consts  --     7.1153                 7.0461                 7.0735
 IR Inten    --    12.9041               100.2713               108.5701
 Raman Activ --    54.3676                13.8166                36.1933

                   124                    125                    126
                     A                      A                      A
 Frequencies --  3357.9723              3367.0006              3370.2497
 Red. masses --     1.0669                 1.0671                 1.0669
 Frc consts  --     7.0881                 7.1276                 7.1400
 IR Inten    --   114.7681                57.0177                43.5463
 Raman Activ --   222.5035               141.5919               118.7581

                   127                    128                    129
                     A                      A                      A
 Frequencies --  3375.0711              3888.8620              3889.4346
 Red. masses --     1.0669                 1.0677                 1.0677
 Frc consts  --     7.1603                 9.5134                 9.5162
 IR Inten    --    39.4458                84.9322                78.7411
 Raman Activ --   122.3349                80.1737               124.8738

 - Thermochemistry -
 -------------------
 Temperature   298.150 Kelvin.  Pressure   1.00000 Atm.
 Atom     1 has atomic number  8 and mass  15.99491

 Molecular mass:   342.11621 amu.
 Principal axes and moments of inertia in atomic units:
                           1         2         3
     Eigenvalues --  4560.49064********************
           X            0.99998   0.00690   0.00041
           Y           -0.00690   0.99997   0.00172
           Z           -0.00040  -0.00172   1.00000
 This molecule is an asymmetric top.
 Rotational symmetry number  1.
 Warning -- assumption of classical behavior for rotation
           may cause significant error
 Rotational temperatures (Kelvin)      0.01899     0.00694     0.00523
 Rotational constants (GHZ):           0.39573     0.14455     0.10888
    7 imaginary frequencies ignored.
 Zero-point vibrational energy     972649.3 (Joules/Mol)
                                  232.46876 (Kcal/Mol)
 Warning -- explicit consideration of  32 degrees of freedom as
           vibrations may cause significant error
 Vibrational temperatures:     59.16    70.15    74.70    97.34   115.30
          (Kelvin)            169.22   223.27   244.61   245.47   327.80
                              348.19   389.64   411.90   415.85   434.57
                              444.15   461.04   476.93   497.93   541.91
                              564.53   582.56   607.06   623.87   661.85
                              694.91   714.08   772.50   812.44   822.35
                              871.61   884.81   917.77   955.14   985.77
                             1026.39  1041.14  1057.54  1082.16  1121.10
                             1210.43  1225.63  1305.75  1351.34  1392.88
                             1414.45  1425.54  1433.82  1445.95  1462.67
                             1480.96  1514.81  1523.49  1531.37  1547.17
                             1552.41  1577.77  1596.88  1608.44  1611.10
                             1615.91  1630.94  1642.92  1664.73  1669.31
                             1694.39  1700.97  1710.37  1726.39  1764.29
                             1771.59  1791.88  1819.99  1825.41  1831.30
                             1864.73  1867.23  1869.75  1877.21  1883.25
                             1890.00  1906.64  1911.56  1934.37  1936.92
                             1945.09  1966.95  1972.19  1987.06  2006.35
                             2011.17  2022.90  2045.12  2094.14  2111.53
                             2114.07  2121.89  2154.90  2159.49  2169.60
                             4680.70  4683.89  4688.96  4692.57  4698.54
                             4706.46  4713.18  4716.30  4730.98  4735.56
                             4739.82  4748.31  4758.45  4760.99  4762.81
                             4829.82  4831.37  4844.36  4849.03  4855.97
                             5595.20  5596.02

 Zero-point correction=                           0.370463 (Hartree/Particle)
 Thermal correction to Energy=                    0.389429
 Thermal correction to Enthalpy=                  0.390374
 Thermal correction to Gibbs Free Energy=         0.323111
 Sum of electronic and zero-point Energies=          -1297.610423
 Sum of electronic and thermal Energies=             -1297.591456
 Sum of electronic and thermal Enthalpies=           -1297.590512
 Sum of electronic and thermal Free Energies=        -1297.657775

                     E (Thermal)             CV                S
                      KCal/Mol        Cal/Mol-Kelvin    Cal/Mol-Kelvin
 Total                  244.371             76.671            141.566
 Electronic               0.000              0.000              0.000
 Translational            0.889              2.981             43.384
 Rotational               0.889              2.981             35.200
 Vibrational            242.593             70.709             62.982
 Vibration     1          0.594              1.981              5.204
 Vibration     2          0.595              1.978              4.867
 Vibration     3          0.596              1.977              4.743
 Vibration     4          0.598              1.970              4.221
 Vibration     5          0.600              1.963              3.888
 Vibration     6          0.608              1.935              3.139
 Vibration     7          0.620              1.897              2.608
 Vibration     8          0.625              1.879              2.435
 Vibration     9          0.626              1.879              2.429
 Vibration    10          0.651              1.799              1.896
 Vibration    11          0.658              1.776              1.788
 Vibration    12          0.675              1.727              1.591
 Vibration    13          0.684              1.699              1.496
 Vibration    14          0.686              1.694              1.480
 Vibration    15          0.694              1.670              1.406
 Vibration    16          0.698              1.657              1.369
 Vibration    17          0.706              1.634              1.308
 Vibration    18          0.714              1.613              1.253
 Vibration    19          0.724              1.583              1.184
 Vibration    20          0.747              1.520              1.053
 Vibration    21          0.760              1.486              0.991
 Vibration    22          0.770              1.460              0.945
 Vibration    23          0.784              1.423              0.885
 Vibration    24          0.794              1.397              0.847
 Vibration    25          0.818              1.339              0.766
 Vibration    26          0.839              1.288              0.702
 Vibration    27          0.852              1.258              0.667
 Vibration    28          0.892              1.168              0.572
 Vibration    29          0.920              1.108              0.515
 Vibration    30          0.928              1.093              0.501
 Vibration    31          0.964              1.020              0.440
 Vibration    32          0.974              1.000              0.425

 Normal termination of Gaussian 09 at Fri Mar 25 22:05:22 2016.
