 Gaussian 09, Revision B.01,
 Gaussian 09:  EM64L-G09RevB.01 12-Aug-2010

 ------------------------------------------------
 # freq=raman b3lyp/6-31+g(d,p) geom=connectivity
 ------------------------------------------------

 ------------
 300 5000.com
 ------------
 Symbolic Z-matrix:
 Charge =  0 Multiplicity = 1

                         Standard orientation:
 ---------------------------------------------------------------------
 Center     Atomic      Atomic             Coordinates (Angstroms)
 Number     Number       Type             X           Y           Z
 ---------------------------------------------------------------------
      1          8           0       -5.021606   -0.488840    0.356692
      2          6           0       -3.689206   -0.157521   -0.059816
      3          6           0       -3.283556    1.239729    0.381275
      4          8           0       -4.135246    2.220090   -0.229158
      5          1           0       -5.049595    2.085305    0.153453
      6          6           0       -1.875067    1.633847   -0.031134
      7          8           0       -1.216033    2.751347    0.581270
      8          1           0       -0.332027    2.957328    0.162501
      9          6           0       -2.788860   -2.591566   -0.222744
     10          8           0       -4.082742   -3.168886    0.006196
     11          1           0       -3.877462   -4.145994   -0.053049
     12          6           0       -2.610180   -1.170832    0.288596
     13          8           0       -1.258283   -0.875165   -0.089770
     14          6           0       -0.907622    0.484934    0.205749
     15          8           0        0.247651    0.581369   -0.639798
     16          6           0        1.471241    0.241035    0.029311
     17          6           0        1.892464   -1.130153   -0.471563
     18          8           0        0.946932   -2.165928   -0.166025
     19          1           0        0.096090   -1.829566   -0.567926
     20          6           0        3.196741   -1.507420    0.213148
     21          8           0        3.814926   -2.736606   -0.189975
     22          1           0        4.663380   -2.940889    0.298820
     23          6           0        2.329216    2.718731   -0.018276
     24          8           0        1.156333    3.359986   -0.540261
     25          1           0        1.299612    4.348310   -0.593384
     26          6           0        2.561106    1.245036   -0.310541
     27          8           0        3.753160    0.796032    0.349276
     28          6           0        4.265402   -0.469731   -0.091639
     29          8           0        5.408515   -0.655405    0.754725
     30          1           0        6.180180   -0.840061    0.214322
     31          1           0       -5.560877   -0.676169   -0.415120
     32          1           0       -2.056753   -3.212262    0.250180
     33          1           0       -2.602659   -2.594165   -1.276415
     34          1           0       -2.612118   -1.236554    1.356574
     35          1           0       -3.721671   -0.127453   -1.128901
     36          1           0       -3.371200    1.311325    1.445273
     37          1           0       -1.899115    1.820885   -1.084385
     38          1           0       -0.583794    0.531274    1.224517
     39          1           0        3.177969    3.255181   -0.388059
     40          1           0        2.309977    2.834337    1.045286
     41          1           0        2.736136    1.165210   -1.363105
     42          1           0        1.315154    0.212827    1.087489
     43          1           0        2.045528   -1.089993   -1.529796
     44          1           0        3.033763   -1.534887    1.270306
     45          1           0        4.530559   -0.454477   -1.128152
 ---------------------------------------------------------------------

 SCF Done:  E(RB3LYP) =  -1297.93110293     A.U. after   13 cycles

 The electronic state is 1-A.
 Alpha  occ. eigenvalues --  -19.20309 -19.19032 -19.18804 -19.17858 -19.17857
 Alpha  occ. eigenvalues --  -19.17642 -19.16955 -19.16407 -19.15963 -19.14350
 Alpha  occ. eigenvalues --  -19.14212 -10.30702 -10.29994 -10.26402 -10.26120
 Alpha  occ. eigenvalues --  -10.25692 -10.25385 -10.25359 -10.25185 -10.25024
 Alpha  occ. eigenvalues --  -10.24505 -10.24477 -10.24048  -1.10083  -1.08907
 Alpha  occ. eigenvalues --   -1.06012  -1.05041  -1.03625  -1.03091  -1.02660
 Alpha  occ. eigenvalues --   -1.02346  -1.02018  -1.00568  -1.00113  -0.81716
 Alpha  occ. eigenvalues --   -0.80536  -0.79289  -0.77898  -0.71902  -0.70025
 Alpha  occ. eigenvalues --   -0.67343  -0.64630  -0.63065  -0.62766  -0.61320
 Alpha  occ. eigenvalues --   -0.59578  -0.56349  -0.55892  -0.55241  -0.54755
 Alpha  occ. eigenvalues --   -0.54238  -0.53138  -0.52699  -0.51917  -0.51535
 Alpha  occ. eigenvalues --   -0.50313  -0.50087  -0.49205  -0.48417  -0.47137
 Alpha  occ. eigenvalues --   -0.46275  -0.44620  -0.44247  -0.43500  -0.42878
 Alpha  occ. eigenvalues --   -0.42720  -0.42199  -0.41106  -0.39997  -0.39248
 Alpha  occ. eigenvalues --   -0.38623  -0.37744  -0.37127  -0.36591  -0.35966
 Alpha  occ. eigenvalues --   -0.35197  -0.34306  -0.34122  -0.33572  -0.33031
 Alpha  occ. eigenvalues --   -0.32192  -0.31516  -0.30863  -0.30193  -0.29602
 Alpha  occ. eigenvalues --   -0.28793  -0.28598  -0.28075  -0.27541  -0.26781
 Alpha  occ. eigenvalues --   -0.26076
 Alpha virt. eigenvalues --   -0.02351  -0.01730  -0.01561  -0.00023   0.00410
 Alpha virt. eigenvalues --    0.01211   0.02022   0.02161   0.03120   0.03412
 Alpha virt. eigenvalues --    0.03763   0.04415   0.05018   0.05485   0.05806

 Mulliken atomic charges:
              1
     1  O   -0.527378
     2  C   -0.155986
     3  C    0.217662
     4  O   -0.500966
     5  H    0.355290
     6  C   -0.334182
     7  O   -0.569064
     8  H    0.460338
     9  C   -0.128604
    10  O   -0.533558
    11  H    0.354675
    12  C    0.300586
    13  O   -0.428210
    14  C    0.350631
    15  O   -0.320715
    16  C   -0.134112
    17  C   -0.132743
    18  O   -0.459497
    19  H    0.401915
    20  C    0.058412
    21  O   -0.520155
    22  H    0.357114
    23  C   -0.047721
    24  O   -0.630144
    25  H    0.399083
    26  C    0.187953
    27  O   -0.322861
    28  C    0.197150
    29  O   -0.568261
    30  H    0.362285
    31  H    0.376854
    32  H    0.147579
    33  H    0.139920
    34  H    0.130018
    35  H    0.131473
    36  H    0.144257
    37  H    0.153534
    38  H    0.121655
    39  H    0.139144
    40  H    0.152098
    41  H    0.127610
    42  H    0.128612
    43  H    0.137305
    44  H    0.147702
    45  H    0.133298
 Sum of Mulliken atomic charges =   0.00000

 Dipole moment (field-independent basis, Debye):
    X=              2.4998    Y=              0.8619    Z=             -2.0924  Tot=              3.3720
 Quadrupole moment (field-independent basis, Debye-Ang):
   XX=           -119.8155   YY=           -133.0268   ZZ=           -139.6723
   XY=             12.6234   XZ=             -2.1367   YZ=             -1.8965

  Exact polarizability: 227.858  -2.222 193.185   0.463   0.111 141.012
 Approx polarizability: 266.120  -2.617 248.017   0.556  -0.983 231.231

 ******    7 imaginary frequencies (negative Signs) ******

                     1                      2                      3
                     A                      A                      A
 Frequencies --  -322.6923              -275.0826              -268.8805
 Red. masses --     1.1400                 1.1660                 1.7595
 Frc consts  --     0.0699                 0.0520                 0.0749
 IR Inten    --   116.7522               130.9191                 3.1282
 Raman Activ --     0.7692                 1.0735                 0.0353

                     4                      5                      6
                     A                      A                      A
 Frequencies --  -249.5656              -109.6976               -82.0950
 Red. masses --     1.7837                 7.4124                 6.6515
 Frc consts  --     0.0655                 0.0526                 0.0264
 IR Inten    --     4.5521                 0.8264                 0.5442
 Raman Activ --     0.1627                 0.0211                 0.0210

                     7                      8                      9
                     A                      A                      A
 Frequencies --   -48.7744                21.5413                39.0113
 Red. masses --     6.1608                 6.3516                 6.8650
 Frc consts  --     0.0086                 0.0017                 0.0062
 IR Inten    --     0.1253                 1.2383                 0.9117
 Raman Activ --     0.0199                 0.0779                 0.0100

                    10                     11                     12
                     A                      A                      A
 Frequencies --    70.1449                95.3617               126.9100
 Red. masses --     6.2864                 6.3116                 5.6898
 Frc consts  --     0.0182                 0.0338                 0.0540
 IR Inten    --     3.3566                 0.7209                 1.1721
 Raman Activ --     0.0589                 0.3193                 0.0884

                    13                     14                     15
                     A                      A                      A
 Frequencies --   144.6537               176.4406               181.9971
 Red. masses --     5.8492                 5.8525                 7.2713
 Frc consts  --     0.0721                 0.1073                 0.1419
 IR Inten    --     8.8626                 0.5297                 0.5829
 Raman Activ --     0.2191                 0.4339                 0.4986

                    16                     17                     18
                     A                      A                      A
 Frequencies --   215.1806               226.4508               246.8422
 Red. masses --     6.8177                 5.6465                 4.8286
 Frc consts  --     0.1860                 0.1706                 0.1733
 IR Inten    --     0.1473                 2.5335                14.5282
 Raman Activ --     3.2429                 0.1379                 0.2800

                    19                     20                     21
                     A                      A                      A
 Frequencies --   277.4167               292.7790               307.1245
 Red. masses --     4.9082                 5.1792                 4.7736
 Frc consts  --     0.2226                 0.2616                 0.2653
 IR Inten    --     0.8910                 2.3369                 4.9245
 Raman Activ --     0.0476                 0.2691                 0.5041

                    22                     23                     24
                     A                      A                      A
 Frequencies --   309.7452               318.5393               328.2138
 Red. masses --     5.4421                 6.2041                 6.9338
 Frc consts  --     0.3076                 0.3709                 0.4401
 IR Inten    --     7.9870                 1.3064                 4.0954
 Raman Activ --     0.2966                 2.6127                 3.8755

                    25                     26                     27
                     A                      A                      A
 Frequencies --   337.3913               355.4817               386.2330
 Red. masses --     6.6185                 4.4689                 5.1593
 Frc consts  --     0.4439                 0.3327                 0.4535
 IR Inten    --     7.1032                 2.9589                 1.4222
 Raman Activ --     2.2241                 0.3851                 0.3577

                    28                     29                     30
                     A                      A                      A
 Frequencies --   405.9279               411.5036               434.6765
 Red. masses --     4.5891                 6.8077                 4.4843
 Frc consts  --     0.4455                 0.6792                 0.4992
 IR Inten    --    14.0812                 2.8056                 2.2386
 Raman Activ --     2.9339                 8.6990                 2.1826

                    31                     32                     33
                     A                      A                      A
 Frequencies --   440.9913               476.2718               483.4396
 Red. masses --     5.6613                 4.6331                 4.1976
 Frc consts  --     0.6487                 0.6192                 0.5780
 IR Inten    --     5.5764                 3.4837                16.7479
 Raman Activ --     1.9770                 2.6861                 2.5189

                    34                     35                     36
                     A                      A                      A
 Frequencies --   508.1668               525.5344               572.9286
 Red. masses --     3.6440                 3.1772                 4.4036
 Frc consts  --     0.5544                 0.5170                 0.8516
 IR Inten    --    16.2412                 6.2576                18.4653
 Raman Activ --     2.8902                 3.1781                 2.4993

                    37                     38                     39
                     A                      A                      A
 Frequencies --   586.9363               612.2753               628.0343
 Red. masses --     2.8247                 6.5551                 5.3511
 Frc consts  --     0.5733                 1.4478                 1.2435
 IR Inten    --    37.6092                 4.5742                24.8479
 Raman Activ --     0.6182                 0.4765                 0.5790

                    40                     41                     42
                     A                      A                      A
 Frequencies --   645.0659               695.4903               700.2068
 Red. masses --     3.9806                 1.1595                 2.7103
 Frc consts  --     0.9759                 0.3304                 0.7829
 IR Inten    --    36.3463                54.5839               104.4362
 Raman Activ --     0.9474                 1.6158                 1.3979

                    43                     44                     45
                     A                      A                      A
 Frequencies --   704.9752               719.6877               741.9448
 Red. masses --     1.2126                 1.0902                 1.1041
 Frc consts  --     0.3551                 0.3327                 0.3581
 IR Inten    --    76.5008                98.3949               116.1721
 Raman Activ --     2.4245                 1.8691                 1.8227

                    46                     47                     48
                     A                      A                      A
 Frequencies --   777.5249               843.3883               853.0351
 Red. masses --     1.1343                 1.3559                 1.7600
 Frc consts  --     0.4040                 0.5682                 0.7546
 IR Inten    --   219.5495                36.5354                 7.0481
 Raman Activ --     4.8535                 0.3799                 0.8108

                    49                     50                     51
                     A                      A                      A
 Frequencies --   889.9225               938.2112               967.4269
 Red. masses --     1.3012                 4.6902                 5.4191
 Frc consts  --     0.6072                 2.4325                 2.9882
 IR Inten    --    33.7235               103.6590                27.7740
 Raman Activ --     0.5092                 4.6084                 0.9151

                    52                     53                     54
                     A                      A                      A
 Frequencies --   985.3212               985.9815              1002.8669
 Red. masses --     5.3600                 4.6962                 5.4376
 Frc consts  --     3.0660                 2.6899                 3.2221
 IR Inten    --    14.7910               176.3903                28.3425
 Raman Activ --     1.7517                 2.6183                 1.4623

                    55                     56                     57
                     A                      A                      A
 Frequencies --  1006.9760              1019.3171              1036.5227
 Red. masses --     5.6649                 5.1864                 5.5522
 Frc consts  --     3.3844                 3.1749                 3.5146
 IR Inten    --   325.7654                24.3403                82.0464
 Raman Activ --     3.1761                 0.8766                 3.6666

                    58                     59                     60
                     A                      A                      A
 Frequencies --  1053.5265              1056.0089              1070.2398
 Red. masses --     3.2371                 3.1443                 2.9598
 Frc consts  --     2.1169                 2.0659                 1.9974
 IR Inten    --   217.1178               240.9621                50.0237
 Raman Activ --     1.5371                 4.2971                 7.2713

                    61                     62                     63
                     A                      A                      A
 Frequencies --  1079.9396              1083.7003              1091.4772
 Red. masses --     4.3091                 5.3819                 3.8530
 Frc consts  --     2.9610                 3.7240                 2.7044
 IR Inten    --    38.4252               109.2932                97.6611
 Raman Activ --     2.8320                 0.7758                 9.5778

                    64                     65                     66
                     A                      A                      A
 Frequencies --  1100.5544              1106.2820              1110.7327
 Red. masses --     3.0690                 2.4322                 3.5187
 Frc consts  --     2.1901                 1.7538                 2.5577
 IR Inten    --   111.6979                50.3866                 5.3804
 Raman Activ --     8.4741                 2.8176                18.9112

                    67                     68                     69
                     A                      A                      A
 Frequencies --  1117.8385              1121.9782              1137.5299
 Red. masses --     3.0135                 2.5365                 2.5499
 Frc consts  --     2.2186                 1.8813                 1.9440
 IR Inten    --    10.6404                54.1484                31.4332
 Raman Activ --     6.0187                 1.0111                10.4260

                    70                     71                     72
                     A                      A                      A
 Frequencies --  1144.6073              1163.3593              1173.4198
 Red. masses --     2.0176                 2.7428                 2.2663
 Frc consts  --     1.5574                 2.1871                 1.8386
 IR Inten    --    23.4242                10.1526                36.6295
 Raman Activ --     5.4685                 2.9900                 2.5232

                    73                     74                     75
                     A                      A                      A
 Frequencies --  1186.8195              1194.6919              1200.4108
 Red. masses --     1.7906                 1.7516                 1.5820
 Frc consts  --     1.4860                 1.4730                 1.3432
 IR Inten    --     3.4306                 8.7389                11.5684
 Raman Activ --     0.9384                 5.4230                 2.8644

                    76                     77                     78
                     A                      A                      A
 Frequencies --  1206.9301              1213.1790              1225.6206
 Red. masses --     1.5572                 1.2541                 1.2726
 Frc consts  --     1.3364                 1.0875                 1.1263
 IR Inten    --     7.8465                13.7258                17.0809
 Raman Activ --     2.8417                 2.2530                 0.8284

                    79                     80                     81
                     A                      A                      A
 Frequencies --  1236.1647              1246.8743              1257.6269
 Red. masses --     1.3632                 1.4234                 1.1757
 Frc consts  --     1.2273                 1.3038                 1.0956
 IR Inten    --     5.3375                16.3623                18.2225
 Raman Activ --     3.9270                 1.7401                 1.3911

                    82                     83                     84
                     A                      A                      A
 Frequencies --  1272.5899              1275.3975              1288.0848
 Red. masses --     1.3928                 1.4176                 1.2139
 Frc consts  --     1.3290                 1.3586                 1.1866
 IR Inten    --    30.8693                43.1682                 6.5913
 Raman Activ --     1.0720                 3.8187                 4.1935

                    85                     86                     87
                     A                      A                      A
 Frequencies --  1290.4414              1296.3958              1305.3731
 Red. masses --     1.2763                 1.2720                 1.2007
 Frc consts  --     1.2522                 1.2596                 1.2055
 IR Inten    --     6.4207                10.7392                31.4475
 Raman Activ --     2.6624                 5.4126                 2.8403

                    88                     89                     90
                     A                      A                      A
 Frequencies --  1313.4583              1323.6139              1328.7034
 Red. masses --     1.2788                 1.2626                 1.3714
 Frc consts  --     1.2998                 1.3033                 1.4265
 IR Inten    --    17.3338                 4.9196                10.0147
 Raman Activ --     4.5608                 7.4632                 6.5833

                    91                     92                     93
                     A                      A                      A
 Frequencies --  1338.7156              1347.4180              1350.9766
 Red. masses --     1.4490                 1.2627                 1.1450
 Frc consts  --     1.5300                 1.3507                 1.2313
 IR Inten    --    32.8959                27.6651                39.0331
 Raman Activ --     3.7331                 6.1770                 1.8668

                    94                     95                     96
                     A                      A                      A
 Frequencies --  1356.2356              1361.6060              1387.9651
 Red. masses --     1.2481                 1.4084                 1.4631
 Frc consts  --     1.3526                 1.5384                 1.6607
 IR Inten    --    44.9915                17.5484                 1.1675
 Raman Activ --     3.7827                 3.5249                 9.6584

                    97                     98                     99
                     A                      A                      A
 Frequencies --  1389.8314              1399.8245              1409.8228
 Red. masses --     1.4652                 1.5569                 1.3037
 Frc consts  --     1.6675                 1.7974                 1.5268
 IR Inten    --    12.1341                20.9165                 1.0469
 Raman Activ --     5.3699                 0.9874                 1.9007

                   100                    101                    102
                     A                      A                      A
 Frequencies --  1417.6094              1428.0708              1448.2165
 Red. masses --     1.3676                 1.3646                 1.5188
 Frc consts  --     1.6193                 1.6397                 1.8767
 IR Inten    --     3.5866                45.7273                15.0980
 Raman Activ --    12.2884                 2.2658                 1.0154

                   103                    104                    105
                     A                      A                      A
 Frequencies --  1467.0061              1483.7444              1484.0909
 Red. masses --     1.3759                 1.0876                 1.1008
 Frc consts  --     1.7447                 1.4107                 1.4285
 IR Inten    --    19.6408                 4.6643                 5.6761
 Raman Activ --     1.8239                 6.6727                 4.9383

                   106                    107                    108
                     A                      A                      A
 Frequencies --  1489.7848              1519.9691              3252.8882
 Red. masses --     1.3473                 1.2548                 1.0701
 Frc consts  --     1.7619                 1.7080                 6.6713
 IR Inten    --    18.3395                32.3334               973.0106
 Raman Activ --     0.6473                 1.4060               124.8635

                   109                    110                    111
                     A                      A                      A
 Frequencies --  3267.1392              3270.5722              3275.6392
 Red. masses --     1.0587                 1.0795                 1.0773
 Frc consts  --     6.6585                 6.8031                 6.8104
 IR Inten    --    34.0869                16.4210                25.3616
 Raman Activ --   118.0243                62.1699               135.5694

                   112                    113                    114
                     A                      A                      A
 Frequencies --  3278.2932              3284.6985              3290.3658
 Red. masses --     1.0658                 1.0844                 1.0838
 Frc consts  --     6.7488                 6.8934                 6.9131
 IR Inten    --    42.6237                29.5717                11.4235
 Raman Activ --   118.0836                23.6645                16.3698

                   115                    116                    117
                     A                      A                      A
 Frequencies --  3294.1511              3297.2503              3302.2031
 Red. masses --     1.0840                 1.0850                 1.0852
 Frc consts  --     6.9304                 6.9502                 6.9720
 IR Inten    --    16.5477                 5.7517                 2.1824
 Raman Activ --   180.9493                13.8921                63.2756

                   118                    119                    120
                     A                      A                      A
 Frequencies --  3307.7361              3311.7401              3318.0853
 Red. masses --     1.0865                 1.0860                 1.0871
 Frc consts  --     7.0038                 7.0174                 7.0515
 IR Inten    --     8.9167                48.2818                88.8325
 Raman Activ --    54.5267                27.6156                 3.3199

                   121                    122                    123
                     A                      A                      A
 Frequencies --  3326.1346              3330.9568              3346.6945
 Red. masses --     1.1076                 1.1067                 1.0659
 Frc consts  --     7.2198                 7.2348                 7.0340
 IR Inten    --    43.6716                46.8162               527.2186
 Raman Activ --    25.7485                54.7147               145.3875

                   124                    125                    126
                     A                      A                      A
 Frequencies --  3385.1476              3388.1467              3391.0268
 Red. masses --     1.0667                 1.0667                 1.0657
 Frc consts  --     7.2017                 7.2148                 7.2202
 IR Inten    --    45.2604                27.8044                27.7658
 Raman Activ --   148.4536               142.0555               142.8291

                   127                    128                    129
                     A                      A                      A
 Frequencies --  3397.0423              3920.0708              3920.9271
 Red. masses --     1.0675                 1.0679                 1.0676
 Frc consts  --     7.2581                 9.6688                 9.6698
 IR Inten    --    67.3781                93.5004                63.1329
 Raman Activ --   160.0366                72.7290               128.7070

 - Thermochemistry -
 -------------------
 Temperature   298.150 Kelvin.  Pressure   1.00000 Atm.
 Atom     1 has atomic number  8 and mass  15.99491

 Molecular mass:   342.11621 amu.
 Principal axes and moments of inertia in atomic units:
                           1         2         3
     Eigenvalues --  4461.88677********************
           X            0.99997   0.00723  -0.00061
           Y           -0.00723   0.99997   0.00071
           Z            0.00061  -0.00071   1.00000
 This molecule is an asymmetric top.
 Rotational symmetry number  1.
 Warning -- assumption of classical behavior for rotation
           may cause significant error
 Rotational temperatures (Kelvin)      0.01941     0.00728     0.00544
 Rotational constants (GHZ):           0.40448     0.15177     0.11335
    7 imaginary frequencies ignored.
 Zero-point vibrational energy     978362.1 (Joules/Mol)
                                  233.83416 (Kcal/Mol)
 Warning -- explicit consideration of  31 degrees of freedom as
           vibrations may cause significant error
 Vibrational temperatures:     30.99    56.13   100.92   137.20   182.59
          (Kelvin)            208.12   253.86   261.85   309.60   325.81
                              355.15   399.14   421.24   441.88   445.65
                              458.31   472.23   485.43   511.46   555.70
                              584.04   592.06   625.40   634.49   685.25
                              695.56   731.14   756.13   824.32   844.47
                              880.93   903.60   928.10  1000.65  1007.44
                             1014.30  1035.47  1067.49  1118.68  1213.45
                             1227.33  1280.40  1349.88  1391.91  1417.66
                             1418.61  1442.90  1448.81  1466.57  1491.32
                             1515.79  1519.36  1539.83  1553.79  1559.20
                             1570.39  1583.45  1591.69  1598.09  1608.32
                             1614.27  1636.65  1646.83  1673.81  1688.29
                             1707.57  1718.89  1727.12  1736.50  1745.49
                             1763.39  1778.56  1793.97  1809.44  1830.97
                             1835.01  1853.26  1856.65  1865.22  1878.14
                             1889.77  1904.38  1911.71  1926.11  1938.63
                             1943.75  1951.32  1959.04  1996.97  1999.65
                             2014.03  2028.42  2039.62  2054.67  2083.66
                             2110.69  2134.77  2135.27  2143.47  2186.89
                             4680.17  4700.68  4705.62  4712.91  4716.73
                             4725.94  4734.10  4739.54  4744.00  4751.13
                             4759.09  4764.85  4773.98  4785.56  4792.50
                             4815.14  4870.47  4874.78  4878.93  4887.58
                             5640.10  5641.33

 Zero-point correction=                           0.372638 (Hartree/Particle)
 Thermal correction to Energy=                    0.391049
 Thermal correction to Enthalpy=                  0.391993
 Thermal correction to Gibbs Free Energy=         0.326011
 Sum of electronic and zero-point Energies=          -1297.558464
 Sum of electronic and thermal Energies=             -1297.540054
 Sum of electronic and thermal Enthalpies=           -1297.539110
 Sum of electronic and thermal Free Energies=        -1297.605092

                     E (Thermal)             CV                S
                      KCal/Mol        Cal/Mol-Kelvin    Cal/Mol-Kelvin
 Total                  245.387             75.609            138.870
 Electronic               0.000              0.000              0.000
 Translational            0.889              2.981             43.384
 Rotational               0.889              2.981             35.090
 Vibrational            243.609             69.647             60.396
 Vibration     1          0.593              1.985              6.487
 Vibration     2          0.594              1.981              5.309
 Vibration     3          0.598              1.968              4.149
 Vibration     4          0.603              1.953              3.547
 Vibration     5          0.611              1.926              2.992
 Vibration     6          0.616              1.908              2.741
 Vibration     7          0.628              1.871              2.366
 Vibration     8          0.630              1.864              2.308
 Vibration     9          0.645              1.818              1.999
 Vibration    10          0.650              1.801              1.907
 Vibration    11          0.661              1.768              1.753
 Vibration    12          0.678              1.715              1.550
 Vibration    13          0.688              1.687              1.458
 Vibration    14          0.697              1.660              1.378
 Vibration    15          0.699              1.655              1.364
 Vibration    16          0.705              1.638              1.318
 Vibration    17          0.711              1.619              1.269
 Vibration    18          0.718              1.601              1.224
 Vibration    19          0.731              1.564              1.142
 Vibration    20          0.755              1.500              1.015
 Vibration    21          0.771              1.457              0.941
 Vibration    22          0.775              1.445              0.921
 Vibration    23          0.795              1.395              0.844
 Vibration    24          0.801              1.381              0.823
 Vibration    25          0.833              1.303              0.720
 Vibration    26          0.840              1.287              0.701
 Vibration    27          0.863              1.232              0.638
 Vibration    28          0.880              1.193              0.597
 Vibration    29          0.929              1.090              0.499
 Vibration    30          0.944              1.060              0.473
 Vibration    31          0.972              1.006              0.429

 Normal termination of Gaussian 09 at Tue Mar  1 03:26:00 2016.
