 Gaussian 09, Revision B.01,
 Gaussian 09:  EM64L-G09RevB.01 12-Aug-2010

 ------------------------------------------------
 # freq=raman b3lyp/6-31+g(d,p) geom=connectivity
 ------------------------------------------------

 ------------
 350 9000.com
 ------------
 Symbolic Z-matrix:
 Charge =  0 Multiplicity = 1

                         Standard orientation:
 ---------------------------------------------------------------------
 Center     Atomic      Atomic             Coordinates (Angstroms)
 Number     Number       Type             X           Y           Z
 ---------------------------------------------------------------------
      1          8           0       -5.039618   -0.322776    0.352192
      2          6           0       -3.698654   -0.014696   -0.054638
      3          6           0       -3.208661    1.326730    0.465363
      4          8           0       -4.099203    2.254987   -0.171068
      5          1           0       -4.946905    1.740474   -0.298286
      6          6           0       -1.784617    1.567960   -0.007910
      7          8           0       -1.205464    2.779722    0.497395
      8          1           0       -0.348529    2.877634   -0.008324
      9          6           0       -3.201792   -2.483093   -0.279361
     10          8           0       -4.390247   -3.126221    0.200553
     11          1           0       -4.281760   -4.119698    0.185553
     12          6           0       -2.785068   -1.161149    0.345530
     13          8           0       -1.469128   -0.875841   -0.150319
     14          6           0       -0.846184    0.383300    0.146155
     15          8           0        0.354963    0.487741   -0.632014
     16          6           0        1.541844    0.153506    0.103374
     17          6           0        2.039998   -1.191917   -0.398144
     18          8           0        1.042236   -2.223115   -0.418806
     19          1           0        0.121902   -1.842138   -0.499847
     20          6           0        3.371315   -1.534497    0.249506
     21          8           0        3.941144   -2.715410   -0.336084
     22          1           0        4.933343   -2.657367   -0.226768
     23          6           0        2.372145    2.660256   -0.145452
     24          8           0        1.123619    3.224318   -0.570850
     25          1           0        1.137396    4.224042   -0.543265
     26          6           0        2.604117    1.164620   -0.293845
     27          8           0        3.797821    0.819632    0.425177
     28          6           0        4.374629   -0.421134   -0.005811
     29          8           0        5.423971   -0.600392    0.956041
     30          1           0        6.236508   -0.836982    0.502820
     31          1           0        4.730758   -0.392622   -1.014404
     32          1           0        3.240983   -1.674766    1.302235
     33          1           0        2.275340   -1.028539   -1.429077
     34          1           0        1.370499    0.148273    1.159552
     35          1           0        2.807521    0.994633   -1.330490
     36          1           0        3.148335    3.158588   -0.687757
     37          1           0        2.494186    2.900585    0.890042
     38          1           0       -5.559628   -0.565806   -0.417305
     39          1           0       -0.551269    0.352525    1.174249
     40          1           0       -1.867828    1.719232   -1.063889
     41          1           0       -3.283382    1.382672    1.531283
     42          1           0       -3.694196    0.038651   -1.123298
     43          1           0       -2.760647   -1.253230    1.411281
     44          1           0       -2.390718   -3.169197   -0.151612
     45          1           0       -3.327083   -2.317457   -1.329012
 ---------------------------------------------------------------------

 SCF Done:  E(RB3LYP) =  -1297.93161048     A.U. after   14 cycles

 The electronic state is 1-A.
 Alpha  occ. eigenvalues --  -19.20226 -19.19606 -19.19409 -19.19080 -19.19010
 Alpha  occ. eigenvalues --  -19.18095 -19.17262 -19.17127 -19.15603 -19.14594
 Alpha  occ. eigenvalues --  -19.13880 -10.31984 -10.30919 -10.26907 -10.26399
 Alpha  occ. eigenvalues --  -10.26207 -10.26066 -10.25544 -10.25189 -10.24802
 Alpha  occ. eigenvalues --  -10.24748 -10.24583 -10.24283  -1.10266  -1.09566
 Alpha  occ. eigenvalues --   -1.06230  -1.05913  -1.04499  -1.04003  -1.03020
 Alpha  occ. eigenvalues --   -1.02803  -1.02006  -1.00426  -1.00027  -0.82529
 Alpha  occ. eigenvalues --   -0.80213  -0.79796  -0.78537  -0.72583  -0.70352
 Alpha  occ. eigenvalues --   -0.67581  -0.65276  -0.63538  -0.63125  -0.62259
 Alpha  occ. eigenvalues --   -0.60325  -0.57283  -0.55958  -0.55585  -0.54969
 Alpha  occ. eigenvalues --   -0.54556  -0.53686  -0.53010  -0.51839  -0.51282
 Alpha  occ. eigenvalues --   -0.50819  -0.50113  -0.49887  -0.48980  -0.47286
 Alpha  occ. eigenvalues --   -0.46544  -0.45482  -0.45047  -0.43867  -0.43339
 Alpha  occ. eigenvalues --   -0.42920  -0.41928  -0.41556  -0.40174  -0.39649
 Alpha  occ. eigenvalues --   -0.38783  -0.38519  -0.38060  -0.36428  -0.35701
 Alpha  occ. eigenvalues --   -0.35619  -0.35314  -0.34333  -0.33934  -0.33746
 Alpha  occ. eigenvalues --   -0.33142  -0.31503  -0.31196  -0.30390  -0.30179
 Alpha  occ. eigenvalues --   -0.29549  -0.29171  -0.28011  -0.27673  -0.26695
 Alpha  occ. eigenvalues --   -0.26085
 Alpha virt. eigenvalues --   -0.02990  -0.02281  -0.02052  -0.00339   0.00058
 Alpha virt. eigenvalues --    0.01034   0.01581   0.02396   0.03431   0.03701
 Alpha virt. eigenvalues --    0.04125   0.04303   0.04779   0.05240   0.05543

 Mulliken atomic charges:
              1
     1  O   -0.525581
     2  C   -0.460656
     3  C    0.274558
     4  O   -0.493828
     5  H    0.352054
     6  C   -0.123250
     7  O   -0.556466
     8  H    0.459811
     9  C   -0.172753
    10  O   -0.559357
    11  H    0.364785
    12  C    0.391274
    13  O   -0.430528
    14  C    0.410567
    15  O   -0.298292
    16  C   -0.366421
    17  C    0.058307
    18  O   -0.543536
    19  H    0.422043
    20  C    0.196738
    21  O   -0.472172
    22  H    0.322822
    23  C   -0.052865
    24  O   -0.638029
    25  H    0.399919
    26  C    0.170012
    27  O   -0.323634
    28  C    0.060359
    29  O   -0.529271
    30  H    0.355894
    31  H    0.148771
    32  H    0.152966
    33  H    0.121961
    34  H    0.137375
    35  H    0.126505
    36  H    0.139598
    37  H    0.152586
    38  H    0.381420
    39  H    0.099814
    40  H    0.144279
    41  H    0.142778
    42  H    0.149199
    43  H    0.138603
    44  H    0.139634
    45  H    0.132008
 Sum of Mulliken atomic charges =   0.00000

 Dipole moment (field-independent basis, Debye):
    X=              3.4892    Y=              0.1189    Z=             -2.4695  Tot=              4.2763
 Quadrupole moment (field-independent basis, Debye-Ang):
   XX=           -116.8520   YY=           -139.0259   ZZ=           -140.8385
   XY=             19.5609   XZ=              0.9123   YZ=             -4.2803

  Exact polarizability: 228.682   0.254 191.238   1.242   0.235 141.482
 Approx polarizability: 266.127   1.261 247.045   1.379   0.522 230.947

 ******    8 imaginary frequencies (negative Signs) ******

                     1                      2                      3
                     A                      A                      A
 Frequencies --  -325.0033              -278.6754              -272.5274
 Red. masses --     1.1843                 1.6055                 1.8165
 Frc consts  --     0.0737                 0.0735                 0.0795
 IR Inten    --   109.2400                42.1638                 4.3109
 Raman Activ --     1.0444                 0.2370                 0.0649

                     4                      5                      6
                     A                      A                      A
 Frequencies --  -226.0366               -80.9164               -66.8254
 Red. masses --     1.2804                 6.9339                 6.3127
 Frc consts  --     0.0385                 0.0267                 0.0166
 IR Inten    --    87.1765                 1.0047                 1.0732
 Raman Activ --     0.6804                 0.0317                 0.0776

                     7                      8                      9
                     A                      A                      A
 Frequencies --   -42.7807               -26.7740                25.8745
 Red. masses --     6.1598                 6.4813                 6.4899
 Frc consts  --     0.0066                 0.0027                 0.0026
 IR Inten    --     0.1185                 2.5244                 1.2662
 Raman Activ --     0.0067                 0.0511                 0.1075

                    10                     11                     12
                     A                      A                      A
 Frequencies --    58.5343                86.3883               129.9917
 Red. masses --     7.0616                 6.6601                 5.6791
 Frc consts  --     0.0143                 0.0293                 0.0565
 IR Inten    --     1.1088                 0.1260                 0.7161
 Raman Activ --     0.0412                 0.2651                 0.1036

                    13                     14                     15
                     A                      A                      A
 Frequencies --   155.9070               176.4700               184.7701
 Red. masses --     6.2403                 6.4811                 7.0649
 Frc consts  --     0.0894                 0.1189                 0.1421
 IR Inten    --     4.9844                 4.3569                 0.1687
 Raman Activ --     0.4690                 0.7446                 0.4665

                    16                     17                     18
                     A                      A                      A
 Frequencies --   223.4341               229.1466               248.8028
 Red. masses --     7.0978                 4.7483                 5.2609
 Frc consts  --     0.2088                 0.1469                 0.1919
 IR Inten    --     0.4214                11.1173                12.1843
 Raman Activ --     2.8364                 0.1736                 0.1172

                    19                     20                     21
                     A                      A                      A
 Frequencies --   276.1844               298.9045               303.6203
 Red. masses --     4.6765                 4.4619                 5.3183
 Frc consts  --     0.2102                 0.2349                 0.2889
 IR Inten    --     6.9808                 0.5831                 1.8048
 Raman Activ --     0.1735                 0.4394                 0.7538

                    22                     23                     24
                     A                      A                      A
 Frequencies --   308.4750               327.3917               329.6584
 Red. masses --     6.5677                 5.1304                 5.4699
 Frc consts  --     0.3682                 0.3240                 0.3502
 IR Inten    --     2.8856                 3.9542                 3.3754
 Raman Activ --     2.9938                 1.7405                 3.5387

                    25                     26                     27
                     A                      A                      A
 Frequencies --   353.3677               371.8023               389.3855
 Red. masses --     6.1958                 5.2272                 6.9166
 Frc consts  --     0.4558                 0.4257                 0.6179
 IR Inten    --    20.3765                 1.7392                 1.2338
 Raman Activ --     1.5108                 0.8991                 1.0763

                    28                     29                     30
                     A                      A                      A
 Frequencies --   410.0433               414.9696               434.6408
 Red. masses --     5.0358                 5.3957                 5.3060
 Frc consts  --     0.4989                 0.5474                 0.5906
 IR Inten    --     2.3305                14.5023                 7.0457
 Raman Activ --     6.3713                 1.1982                 2.4648

                    31                     32                     33
                     A                      A                      A
 Frequencies --   446.7113               484.5068               501.5989
 Red. masses --     4.7027                 4.1277                 4.4833
 Frc consts  --     0.5529                 0.5709                 0.6646
 IR Inten    --     3.9627                 7.1343                 7.7624
 Raman Activ --     2.4820                 1.4671                 1.2746

                    34                     35                     36
                     A                      A                      A
 Frequencies --   510.6735               542.6822               566.9318
 Red. masses --     3.3898                 3.2170                 4.5272
 Frc consts  --     0.5209                 0.5582                 0.8573
 IR Inten    --    22.7924                 8.4155                10.7680
 Raman Activ --     3.2062                 4.6401                 1.0932

                    37                     38                     39
                     A                      A                      A
 Frequencies --   590.1912               600.5904               623.5882
 Red. masses --     4.4517                 3.2566                 5.2515
 Frc consts  --     0.9136                 0.6921                 1.2032
 IR Inten    --    18.1500                19.1479                14.7970
 Raman Activ --     0.9889                 0.3549                 0.4910

                    40                     41                     42
                     A                      A                      A
 Frequencies --   631.0420               654.8805               670.6881
 Red. masses --     3.6996                 1.1285                 1.1419
 Frc consts  --     0.8680                 0.2852                 0.3026
 IR Inten    --    13.8942               110.3552                86.4411
 Raman Activ --     0.6633                 1.8013                 2.2151

                    43                     44                     45
                     A                      A                      A
 Frequencies --   684.1378               700.3775               702.6162
 Red. masses --     3.6429                 1.1036                 1.0831
 Frc consts  --     1.0046                 0.3189                 0.3150
 IR Inten    --    10.3577                15.6882               216.1714
 Raman Activ --     0.6438                 1.5629                 1.6825

                    46                     47                     48
                     A                      A                      A
 Frequencies --   726.4980               849.8633               865.4252
 Red. masses --     1.1251                 1.7467                 1.4846
 Frc consts  --     0.3499                 0.7433                 0.6551
 IR Inten    --    75.3204                 2.1895                28.6111
 Raman Activ --     1.2842                 0.7929                 1.5553

                    49                     50                     51
                     A                      A                      A
 Frequencies --   904.8301               941.3368               960.1322
 Red. masses --     1.2714                 4.4801                 5.6017
 Frc consts  --     0.6133                 2.3390                 3.0425
 IR Inten    --    34.3819               140.9289                 8.4105
 Raman Activ --     0.6590                 3.9910                 0.2256

                    52                     53                     54
                     A                      A                      A
 Frequencies --   984.2815               985.5036              1001.4953
 Red. masses --     6.5479                 4.7081                 4.4575
 Frc consts  --     3.7376                 2.6941                 2.6341
 IR Inten    --    14.0523               149.9657               291.5868
 Raman Activ --     4.0817                 2.0117                 0.9225

                    55                     56                     57
                     A                      A                      A
 Frequencies --  1010.3841              1014.3672              1039.2843
 Red. masses --     4.1849                 7.3756                 5.5804
 Frc consts  --     2.5172                 4.4713                 3.5513
 IR Inten    --   102.4871               107.6793               112.1978
 Raman Activ --     0.5553                 1.4881                 3.8008

                    58                     59                     60
                     A                      A                      A
 Frequencies --  1052.4112              1059.2691              1064.2314
 Red. masses --     3.2087                 3.1218                 3.1721
 Frc consts  --     2.0939                 2.0638                 2.1167
 IR Inten    --   337.9042               125.0829                72.6767
 Raman Activ --     1.7924                 8.6491                 1.8274

                    61                     62                     63
                     A                      A                      A
 Frequencies --  1074.3678              1085.1961              1085.3202
 Red. masses --     4.0194                 3.9094                 3.9936
 Frc consts  --     2.7335                 2.7125                 2.7716
 IR Inten    --    96.6357                26.2401                27.3741
 Raman Activ --     5.5992                13.4962                 8.5159

                    64                     65                     66
                     A                      A                      A
 Frequencies --  1090.8897              1094.1781              1110.6471
 Red. masses --     3.3033                 4.2643                 2.2888
 Frc consts  --     2.3161                 3.0080                 1.6635
 IR Inten    --    64.9463               116.2453                18.4334
 Raman Activ --     2.7897                 8.9809                 6.1997

                    67                     68                     69
                     A                      A                      A
 Frequencies --  1121.9494              1130.6670              1136.1498
 Red. masses --     3.5784                 1.9852                 2.2167
 Frc consts  --     2.6539                 1.4953                 1.6859
 IR Inten    --    54.5795                 1.8057                 6.7627
 Raman Activ --     6.2623                 4.0451                 4.5431

                    70                     71                     72
                     A                      A                      A
 Frequencies --  1150.3895              1157.8578              1162.9675
 Red. masses --     3.3976                 2.2869                 2.1026
 Frc consts  --     2.6492                 1.8064                 1.6755
 IR Inten    --    91.1047                 5.9785                12.4381
 Raman Activ --     1.4881                 2.2120                 4.1014

                    73                     74                     75
                     A                      A                      A
 Frequencies --  1184.1963              1189.9056              1202.5714
 Red. masses --     1.5300                 2.1546                 1.9860
 Frc consts  --     1.2641                 1.7974                 1.6922
 IR Inten    --    10.1054                 3.5117                26.7656
 Raman Activ --     3.0326                 1.4666                 4.7684

                    76                     77                     78
                     A                      A                      A
 Frequencies --  1210.5741              1213.2025              1229.5879
 Red. masses --     1.3636                 1.6235                 1.2809
 Frc consts  --     1.1774                 1.4079                 1.1410
 IR Inten    --    17.7403                18.0480                34.1022
 Raman Activ --     6.0487                 2.4968                 0.7826

                    79                     80                     81
                     A                      A                      A
 Frequencies --  1236.3466              1257.2682              1264.3101
 Red. masses --     1.3379                 1.3540                 1.4162
 Frc consts  --     1.2049                 1.2610                 1.3338
 IR Inten    --     2.4598                 5.0051                47.3382
 Raman Activ --     2.2293                 1.1886                 2.7143

                    82                     83                     84
                     A                      A                      A
 Frequencies --  1277.7533              1281.8756              1287.9093
 Red. masses --     1.3461                 1.2065                 1.3409
 Frc consts  --     1.2949                 1.1681                 1.3104
 IR Inten    --    27.8862                13.3935                11.0157
 Raman Activ --     1.5923                 4.6520                 4.2498

                    85                     86                     87
                     A                      A                      A
 Frequencies --  1294.7034              1302.7329              1304.4421
 Red. masses --     1.2512                 1.2351                 1.2867
 Frc consts  --     1.2357                 1.2350                 1.2900
 IR Inten    --    17.5224                 1.9698                18.3176
 Raman Activ --     0.4581                 1.7357                 0.6031

                    88                     89                     90
                     A                      A                      A
 Frequencies --  1306.6959              1325.3425              1326.7862
 Red. masses --     1.2326                 1.3329                 1.2555
 Frc consts  --     1.2400                 1.3795                 1.3021
 IR Inten    --    20.3742                24.1975                32.6770
 Raman Activ --     7.4013                 5.5537                 8.8131

                    91                     92                     93
                     A                      A                      A
 Frequencies --  1342.0357              1346.5860              1353.3127
 Red. masses --     1.1558                 1.4698                 1.2171
 Frc consts  --     1.2265                 1.5703                 1.3134
 IR Inten    --    44.4645                 3.1893                10.3666
 Raman Activ --     6.8420                 6.8672                 7.0058

                    94                     95                     96
                     A                      A                      A
 Frequencies --  1361.2637              1383.5441              1389.0077
 Red. masses --     1.3079                 1.7932                 1.2035
 Frc consts  --     1.4279                 2.0224                 1.3681
 IR Inten    --    40.9512                 4.1879                22.4928
 Raman Activ --     1.6180                 5.9228                 5.5823

                    97                     98                     99
                     A                      A                      A
 Frequencies --  1399.1012              1406.7465              1427.7697
 Red. masses --     1.3557                 1.2974                 1.2806
 Frc consts  --     1.5635                 1.5127                 1.5381
 IR Inten    --     1.6963                 3.7204                 6.1406
 Raman Activ --     3.6600                 6.3920                 8.5950

                   100                    101                    102
                     A                      A                      A
 Frequencies --  1436.6397              1442.9340              1456.1023
 Red. masses --     1.3820                 1.4228                 1.4570
 Frc consts  --     1.6806                 1.7454                 1.8200
 IR Inten    --    60.2294                 3.7816                21.5082
 Raman Activ --     1.3724                 0.6123                 1.3454

                   103                    104                    105
                     A                      A                      A
 Frequencies --  1465.5295              1475.8765              1479.3386
 Red. masses --     1.3967                 1.0899                 1.2789
 Frc consts  --     1.7675                 1.3988                 1.6490
 IR Inten    --    38.0186                11.2889                71.7124
 Raman Activ --     2.5760                 4.2112                 1.6329

                   106                    107                    108
                     A                      A                      A
 Frequencies --  1488.1824              1541.0126              3244.3320
 Red. masses --     1.0811                 1.2166                 1.0686
 Frc consts  --     1.4107                 1.7022                 6.6268
 IR Inten    --     2.3118                40.4592              1021.6631
 Raman Activ --     5.8025                 0.7367               140.1450

                   109                    110                    111
                     A                      A                      A
 Frequencies --  3262.7630              3267.7650              3274.3362
 Red. masses --     1.0832                 1.0582                 1.0806
 Frc consts  --     6.7941                 6.6576                 6.8258
 IR Inten    --    56.9857                31.5397                13.6367
 Raman Activ --    11.3868                77.1096                59.2753

                   112                    113                    114
                     A                      A                      A
 Frequencies --  3276.9391              3279.8663              3287.1681
 Red. masses --     1.0611                 1.0824                 1.0846
 Frc consts  --     6.7136                 6.8602                 6.9051
 IR Inten    --     8.6452                38.7296                12.4839
 Raman Activ --   177.4099                97.2217                43.5337

                   115                    116                    117
                     A                      A                      A
 Frequencies --  3291.1140              3301.5207              3307.0362
 Red. masses --     1.0841                 1.0857                 1.0858
 Frc consts  --     6.9182                 6.9725                 6.9966
 IR Inten    --    21.2665                20.0722                 0.0691
 Raman Activ --   111.9601                14.4085                75.1079

                   118                    119                    120
                     A                      A                      A
 Frequencies --  3313.8411              3314.9455              3320.0903
 Red. masses --     1.0872                 1.0869                 1.0876
 Frc consts  --     7.0344                 7.0369                 7.0634
 IR Inten    --    38.1884                 7.6000                68.5206
 Raman Activ --     9.2562               111.3715                11.2754

                   121                    122                    123
                     A                      A                      A
 Frequencies --  3326.5832              3329.7528              3346.7129
 Red. masses --     1.1046                 1.1063                 1.0687
 Frc consts  --     7.2022                 7.2271                 7.0527
 IR Inten    --    51.6132                48.7762               588.8569
 Raman Activ --    18.9048                62.0087               171.4978

                   124                    125                    126
                     A                      A                      A
 Frequencies --  3370.5382              3381.1182              3392.9244
 Red. masses --     1.0657                 1.0658                 1.0669
 Frc consts  --     7.1330                 7.1790                 7.2365
 IR Inten    --    46.2667                14.7614                77.4251
 Raman Activ --    74.9034               124.1902               146.8677

                   127                    128                    129
                     A                      A                      A
 Frequencies --  3396.9095              3916.8807              3919.4676
 Red. masses --     1.0689                 1.0678                 1.0676
 Frc consts  --     7.2670                 9.6524                 9.6628
 IR Inten    --    44.2699                73.5793                58.0532
 Raman Activ --   164.1902                75.7002               126.3530

 - Thermochemistry -
 -------------------
 Temperature   298.150 Kelvin.  Pressure   1.00000 Atm.
 Atom     1 has atomic number  8 and mass  15.99491

 Molecular mass:   342.11621 amu.
 Principal axes and moments of inertia in atomic units:
                           1         2         3
     Eigenvalues --  4373.50512********************
           X            0.99997   0.00810  -0.00007
           Y           -0.00810   0.99997  -0.00080
           Z            0.00006   0.00080   1.00000
 This molecule is an asymmetric top.
 Rotational symmetry number  1.
 Warning -- assumption of classical behavior for rotation
           may cause significant error
 Rotational temperatures (Kelvin)      0.01980     0.00693     0.00529
 Rotational constants (GHZ):           0.41265     0.14430     0.11022
    8 imaginary frequencies ignored.
 Zero-point vibrational energy     978082.7 (Joules/Mol)
                                  233.76738 (Kcal/Mol)
 Warning -- explicit consideration of  30 degrees of freedom as
           vibrations may cause significant error
 Vibrational temperatures:     37.23    84.22   124.29   187.03   224.32
          (Kelvin)            253.90   265.84   321.47   329.69   357.97
                              397.37   430.06   436.84   443.83   471.04
                              474.30   508.42   534.94   560.24   589.96
                              597.05   625.35   642.72   697.10   721.69
                              734.74   780.80   815.69   849.15   864.11
                              897.20   907.93   942.23   964.97   984.32
                             1007.69  1010.91  1045.27  1222.76  1245.15
                             1301.85  1354.37  1381.41  1416.16  1417.92
                             1440.93  1453.72  1459.45  1495.30  1514.18
                             1524.05  1531.19  1545.77  1561.35  1561.53
                             1569.54  1574.28  1597.97  1614.23  1626.78
                             1634.66  1655.15  1665.90  1673.25  1703.79
                             1712.01  1730.23  1741.74  1745.53  1769.10
                             1778.82  1808.93  1819.06  1838.40  1844.33
                             1853.01  1862.79  1874.34  1876.80  1880.04
                             1906.87  1908.95  1930.89  1937.43  1947.11
                             1958.55  1990.61  1998.47  2012.99  2023.99
                             2054.24  2067.00  2076.06  2095.00  2108.57
                             2123.45  2128.44  2141.16  2217.17  4667.86
                             4694.38  4701.58  4711.03  4714.78  4718.99
                             4729.50  4735.17  4750.15  4758.08  4767.87
                             4769.46  4776.86  4786.21  4790.77  4815.17
                             4849.45  4864.67  4881.66  4887.39  5635.51
                             5639.23

 Zero-point correction=                           0.372532 (Hartree/Particle)
 Thermal correction to Energy=                    0.390058
 Thermal correction to Enthalpy=                  0.391002
 Thermal correction to Gibbs Free Energy=         0.327628
 Sum of electronic and zero-point Energies=          -1297.559078
 Sum of electronic and thermal Energies=             -1297.541553
 Sum of electronic and thermal Enthalpies=           -1297.540608
 Sum of electronic and thermal Free Energies=        -1297.603982

                     E (Thermal)             CV                S
                      KCal/Mol        Cal/Mol-Kelvin    Cal/Mol-Kelvin
 Total                  244.765             73.753            133.381
 Electronic               0.000              0.000              0.000
 Translational            0.889              2.981             43.384
 Rotational               0.889              2.981             35.148
 Vibrational            242.988             67.791             54.849
 Vibration     1          0.593              1.985              6.123
 Vibration     2          0.596              1.974              4.506
 Vibration     3          0.601              1.959              3.740
 Vibration     4          0.612              1.923              2.946
 Vibration     5          0.620              1.896              2.599
 Vibration     6          0.628              1.871              2.365
 Vibration     7          0.631              1.861              2.280
 Vibration     8          0.649              1.805              1.931
 Vibration     9          0.652              1.797              1.886
 Vibration    10          0.662              1.765              1.739
 Vibration    11          0.678              1.717              1.557
 Vibration    12          0.692              1.676              1.423
 Vibration    13          0.695              1.667              1.397
 Vibration    14          0.698              1.658              1.371
 Vibration    15          0.711              1.621              1.273
 Vibration    16          0.712              1.616              1.262
 Vibration    17          0.730              1.568              1.151
 Vibration    18          0.744              1.530              1.072
 Vibration    19          0.757              1.493              1.002
 Vibration    20          0.774              1.448              0.926
 Vibration    21          0.778              1.438              0.909
 Vibration    22          0.795              1.395              0.844
 Vibration    23          0.806              1.368              0.806
 Vibration    24          0.841              1.284              0.698
 Vibration    25          0.857              1.246              0.654
 Vibration    26          0.866              1.226              0.632
 Vibration    27          0.898              1.156              0.560
 Vibration    28          0.923              1.103              0.510
 Vibration    29          0.948              1.053              0.467
 Vibration    30          0.959              1.031              0.449

 Normal termination of Gaussian 09 at Thu Jan 21 18:03:33 2016.
