 Gaussian 09, Revision B.01,
 Gaussian 09:  EM64L-G09RevB.01 12-Aug-2010

 -------------------------------------------------
 # freq=raman b3lyp/6-31+g(2d,p) geom=connectivity
 -------------------------------------------------

 -----------------
 473 8479/8479.com
 -----------------
 Symbolic Z-matrix:
 Charge =  0 Multiplicity = 1

                         Standard orientation:
 ---------------------------------------------------------------------
 Center     Atomic      Atomic             Coordinates (Angstroms)
 Number     Number       Type             X           Y           Z
 ---------------------------------------------------------------------
      1          8           0        5.059964   -0.479642   -0.195541
      2          6           0        3.740087   -0.091876    0.215253
      3          6           0        3.232057    1.276648   -0.210393
      4          8           0        4.141976    2.316980    0.175546
      5          1           0        5.070921    1.952663    0.240183
      6          6           0        1.829939    1.597429    0.278032
      7          8           0        1.412330    2.849777   -0.283382
      8          1           0        0.480551    3.102630   -0.025046
      9          6           0        3.091084   -2.540806    0.019781
     10          8           0        4.336389   -3.144667   -0.357018
     11          1           0        4.219563   -4.123727   -0.188871
     12          6           0        2.727564   -1.099501   -0.302532
     13          8           0        1.409353   -0.794880    0.177559
     14          6           0        0.893290    0.493831   -0.187027
     15          8           0       -0.274773    0.397595    0.640172
     16          6           0       -1.515701    0.215021   -0.057913
     17          6           0       -1.995295   -1.177222    0.321282
     18          8           0       -1.011629   -2.185760    0.047414
     19          1           0       -0.186091   -1.723063    0.372293
     20          6           0       -3.391446   -1.520136   -0.171845
     21          8           0       -3.823154   -2.768669    0.389669
     22          1           0       -4.668016   -2.937025   -0.117406
     23          6           0       -2.436674    2.585188   -0.329309
     24          8           0       -1.301182    3.327020    0.137662
     25          1           0       -1.396564    4.320111    0.210639
     26          6           0       -2.605364    1.212520    0.301582
     27          8           0       -3.886207    0.818993   -0.210974
     28          6           0       -4.393617   -0.449854    0.227117
     29          8           0       -5.502734   -0.653313   -0.661110
     30          1           0       -6.286681   -0.867816   -0.150213
     31          1           0       -4.664364   -0.472857    1.262040
     32          1           0       -3.374768   -1.603435   -1.238468
     33          1           0       -2.079619   -1.157682    1.387775
     34          1           0       -1.336697    0.252310   -1.112175
     35          1           0       -2.661559    1.312598    1.365408
     36          1           0       -3.318312    3.158014   -0.130600
     37          1           0       -2.345472    2.460502   -1.388099
     38          1           0        5.579521   -0.714246    0.576872
     39          1           0        2.320169   -3.148681   -0.405751
     40          1           0        3.017142   -2.640060    1.082598
     41          1           0        2.706840   -1.008594   -1.368462
     42          1           0        3.714798   -0.125686    1.284420
     43          1           0        3.195573    1.274865   -1.279769
     44          1           0        1.821151    1.656287    1.346376
     45          1           0        0.653700    0.557973   -1.227883
 ---------------------------------------------------------------------

 SCF Done:  E(RB3LYP) =  -1297.98334684     A.U. after   13 cycles

 The electronic state is 1-A.
 Alpha  occ. eigenvalues --  -19.18579 -19.18156 -19.17983 -19.17939 -19.17734
 Alpha  occ. eigenvalues --  -19.16822 -19.16076 -19.16010 -19.14741 -19.13765
 Alpha  occ. eigenvalues --  -19.13525 -10.30627 -10.30567 -10.26041 -10.25450
 Alpha  occ. eigenvalues --  -10.25448 -10.25067 -10.24933 -10.24590 -10.24245
 Alpha  occ. eigenvalues --  -10.24156 -10.23727 -10.23516  -1.10426  -1.09275
 Alpha  occ. eigenvalues --   -1.05126  -1.04930  -1.03590  -1.03461  -1.02642
 Alpha  occ. eigenvalues --   -1.02391  -1.01910  -1.00386  -0.99980  -0.82072
 Alpha  occ. eigenvalues --   -0.80282  -0.79373  -0.78013  -0.71791  -0.69935
 Alpha  occ. eigenvalues --   -0.67282  -0.65042  -0.63330  -0.62268  -0.61127
 Alpha  occ. eigenvalues --   -0.60165  -0.56520  -0.55917  -0.55314  -0.54472
 Alpha  occ. eigenvalues --   -0.53446  -0.53274  -0.52855  -0.51326  -0.50956
 Alpha  occ. eigenvalues --   -0.50559  -0.49929  -0.49146  -0.48712  -0.46475
 Alpha  occ. eigenvalues --   -0.45967  -0.45130  -0.44034  -0.43465  -0.43083
 Alpha  occ. eigenvalues --   -0.42590  -0.41698  -0.41056  -0.40116  -0.39082
 Alpha  occ. eigenvalues --   -0.38446  -0.38181  -0.37416  -0.36049  -0.35717
 Alpha  occ. eigenvalues --   -0.35410  -0.34920  -0.34484  -0.34051  -0.33577
 Alpha  occ. eigenvalues --   -0.32822  -0.31329  -0.31032  -0.30531  -0.29592
 Alpha  occ. eigenvalues --   -0.29100  -0.28175  -0.27771  -0.27574  -0.26373
 Alpha  occ. eigenvalues --   -0.26194
 Alpha virt. eigenvalues --   -0.02107  -0.01870  -0.01750  -0.00069   0.00341
 Alpha virt. eigenvalues --    0.01065   0.01905   0.02387   0.02802   0.03405
 Alpha virt. eigenvalues --    0.03899   0.04054   0.04902   0.05470   0.05678

 Mulliken atomic charges:
              1
     1  O   -0.524336
     2  C   -0.178532
     3  C    0.210774
     4  O   -0.564498
     5  H    0.339604
     6  C    0.076485
     7  O   -0.569856
     8  H    0.398189
     9  C   -0.230632
    10  O   -0.516360
    11  H    0.336204
    12  C    0.182185
    13  O   -0.240714
    14  C    0.062904
    15  O   -0.194240
    16  C    0.410525
    17  C    0.084258
    18  O   -0.557119
    19  H    0.385723
    20  C    0.053777
    21  O   -0.527570
    22  H    0.330479
    23  C   -0.247869
    24  O   -0.591036
    25  H    0.368346
    26  C   -0.185022
    27  O   -0.218375
    28  C    0.166241
    29  O   -0.538160
    30  H    0.332757
    31  H    0.142600
    32  H    0.134870
    33  H    0.111375
    34  H    0.101374
    35  H    0.120670
    36  H    0.147457
    37  H    0.157322
    38  H    0.343987
    39  H    0.150176
    40  H    0.135738
    41  H    0.108284
    42  H    0.115106
    43  H    0.116801
    44  H    0.130603
    45  H    0.129506
 Sum of Mulliken atomic charges =   0.00000

 Dipole moment (field-independent basis, Debye):
    X=             -3.2525    Y=              0.4583    Z=              2.1719  Tot=              3.9378
 Quadrupole moment (field-independent basis, Debye-Ang):
   XX=           -119.7900   YY=           -136.4197   ZZ=           -137.7644
   XY=            -16.4324   XZ=              4.6379   YZ=              1.3145

  Exact polarizability: 234.096   0.850 197.886   1.919  -0.608 143.750
 Approx polarizability: 274.488  -0.239 257.694   2.878  -1.515 239.931

 ******    6 imaginary frequencies (negative Signs) ******

                     1                      2                      3
                     A                      A                      A
 Frequencies --  -326.3437              -232.0645              -223.1701
 Red. masses --     1.6884                 1.2028                 1.2000
 Frc consts  --     0.1059                 0.0382                 0.0352
 IR Inten    --     9.2112                90.9567               118.1870
 Raman Activ --     0.0814                 0.9138                 0.9824

                     4                      5                      6
                     A                      A                      A
 Frequencies --  -213.5813               -73.5181               -47.2158
 Red. masses --     1.9451                 6.7461                 6.1141
 Frc consts  --     0.0523                 0.0215                 0.0080
 IR Inten    --     3.7855                 1.1923                 0.1690
 Raman Activ --     0.0418                 0.0663                 0.0118

                     7                      8                      9
                     A                      A                      A
 Frequencies --    15.4816                44.4419                57.9488
 Red. masses --     6.7694                 6.4029                 6.7701
 Frc consts  --     0.0010                 0.0075                 0.0134
 IR Inten    --     0.3981                 0.7084                 0.6802
 Raman Activ --     0.0306                 0.0634                 0.0237

                    10                     11                     12
                     A                      A                      A
 Frequencies --    68.3439                81.9850               112.9725
 Red. masses --     6.0352                 6.9116                 5.5655
 Frc consts  --     0.0166                 0.0274                 0.0419
 IR Inten    --     1.6514                 1.6925                 0.8269
 Raman Activ --     0.2880                 0.0868                 0.0709

                    13                     14                     15
                     A                      A                      A
 Frequencies --   153.6944               173.8012               187.9028
 Red. masses --     6.0534                 5.8930                 7.4299
 Frc consts  --     0.0842                 0.1049                 0.1546
 IR Inten    --     6.1219                 3.6004                 0.9438
 Raman Activ --     0.4689                 0.3276                 1.3064

                    16                     17                     18
                     A                      A                      A
 Frequencies --   198.3459               233.7151               258.6810
 Red. masses --     6.7001                 5.8511                 4.2801
 Frc consts  --     0.1553                 0.1883                 0.1687
 IR Inten    --     1.2421                 0.9363                21.5538
 Raman Activ --     1.3646                 0.3952                 0.2994

                    19                     20                     21
                     A                      A                      A
 Frequencies --   271.2170               282.3740               298.8073
 Red. masses --     4.7634                 4.6702                 5.6951
 Frc consts  --     0.2064                 0.2194                 0.2996
 IR Inten    --     0.6181                 0.6979                 3.6108
 Raman Activ --     0.1448                 0.0807                 0.6563

                    22                     23                     24
                     A                      A                      A
 Frequencies --   311.5593               317.1888               318.3437
 Red. masses --     5.2353                 5.8141                 5.6742
 Frc consts  --     0.2994                 0.3446                 0.3388
 IR Inten    --     1.8199                 3.5107                 1.1836
 Raman Activ --     0.7797                 3.5495                 1.5490

                    25                     26                     27
                     A                      A                      A
 Frequencies --   337.0405               355.9096               378.1204
 Red. masses --     6.4097                 4.4911                 8.1249
 Frc consts  --     0.4290                 0.3352                 0.6844
 IR Inten    --    10.8072                 5.0601                 1.5908
 Raman Activ --     3.5741                 0.0483                 3.0634

                    28                     29                     30
                     A                      A                      A
 Frequencies --   400.8128               410.7183               428.9954
 Red. masses --     4.0164                 5.2257                 6.0187
 Frc consts  --     0.3802                 0.5194                 0.6526
 IR Inten    --    18.9472                 3.5214                 1.1686
 Raman Activ --     1.5376                 5.5657                 3.3281

                    31                     32                     33
                     A                      A                      A
 Frequencies --   439.1672               477.9345               487.5508
 Red. masses --     4.6387                 4.7629                 4.2427
 Frc consts  --     0.5271                 0.6410                 0.5942
 IR Inten    --     3.5193                 2.0535                10.5469
 Raman Activ --     1.3419                 3.4235                 2.3325

                    34                     35                     36
                     A                      A                      A
 Frequencies --   502.6514               532.7555               569.3460
 Red. masses --     3.4789                 3.2426                 3.6317
 Frc consts  --     0.5179                 0.5423                 0.6936
 IR Inten    --    13.9440                10.5769                21.5161
 Raman Activ --     1.8850                 3.5915                 0.8969

                    37                     38                     39
                     A                      A                      A
 Frequencies --   591.3479               604.6296               620.2700
 Red. masses --     2.7252                 6.2736                 1.7812
 Frc consts  --     0.5615                 1.3513                 0.4038
 IR Inten    --    18.6127                 7.4206                71.6881
 Raman Activ --     0.3086                 0.9968                 1.7790

                    40                     41                     42
                     A                      A                      A
 Frequencies --   635.3122               642.7631               702.7650
 Red. masses --     2.9537                 2.2259                 1.7874
 Frc consts  --     0.7024                 0.5418                 0.5201
 IR Inten    --    16.5974                59.3301                42.8935
 Raman Activ --     0.4996                 1.7281                 2.4621

                    43                     44                     45
                     A                      A                      A
 Frequencies --   708.6486               719.1089               770.1709
 Red. masses --     1.8298                 1.0705                 1.1087
 Frc consts  --     0.5414                 0.3262                 0.3875
 IR Inten    --    35.0375               116.8901                93.5530
 Raman Activ --     1.1542                 1.8448                 1.4223

                    46                     47                     48
                     A                      A                      A
 Frequencies --   783.7087               828.0380               850.2667
 Red. masses --     1.0651                 1.1102                 1.8145
 Frc consts  --     0.3854                 0.4485                 0.7729
 IR Inten    --    97.0436               101.8584                 3.1688
 Raman Activ --     1.6006                 3.9502                 0.7446

                    49                     50                     51
                     A                      A                      A
 Frequencies --   863.2724               908.8939               937.3591
 Red. masses --     1.6765                 5.3241                 5.1840
 Frc consts  --     0.7361                 2.5913                 2.6836
 IR Inten    --     1.3850               153.5443                42.8302
 Raman Activ --     0.4437                 3.1364                 0.4467

                    52                     53                     54
                     A                      A                      A
 Frequencies --   976.1318               983.2091               985.1100
 Red. masses --     5.9937                 5.7245                 4.7164
 Frc consts  --     3.3648                 3.2604                 2.6967
 IR Inten    --   113.5747               105.2298                16.0104
 Raman Activ --     1.5988                 4.7594                 1.0537

                    55                     56                     57
                     A                      A                      A
 Frequencies --  1002.9679              1005.6712              1015.2790
 Red. masses --     6.2059                 5.9951                 6.0729
 Frc consts  --     3.6782                 3.5724                 3.6882
 IR Inten    --   379.6339                 2.5828               133.7900
 Raman Activ --     2.3652                 0.7020                 5.1113

                    58                     59                     60
                     A                      A                      A
 Frequencies --  1040.9922              1050.4310              1062.1582
 Red. masses --     5.4674                 4.6191                 3.5573
 Frc consts  --     3.4908                 3.0029                 2.3645
 IR Inten    --   255.4484                41.5649               176.1332
 Raman Activ --     2.8684                 7.4807                16.6914

                    61                     62                     63
                     A                      A                      A
 Frequencies --  1068.8183              1075.1043              1080.8166
 Red. masses --     4.7501                 3.8192                 4.2178
 Frc consts  --     3.1972                 2.6009                 2.9030
 IR Inten    --     9.4140               103.2325                12.3805
 Raman Activ --     2.4963                12.4182                 2.9675

                    64                     65                     66
                     A                      A                      A
 Frequencies --  1098.9891              1102.5694              1108.1342
 Red. masses --     3.0039                 3.1194                 2.3971
 Frc consts  --     2.1376                 2.2343                 1.7343
 IR Inten    --    40.0105                70.2150                46.9114
 Raman Activ --     2.4996                 3.2535                 5.4280

                    67                     68                     69
                     A                      A                      A
 Frequencies --  1114.5008              1126.6309              1132.2944
 Red. masses --     2.2986                 2.9018                 2.4979
 Frc consts  --     1.6822                 2.1701                 1.8869
 IR Inten    --    31.9371                18.4500                58.6342
 Raman Activ --     7.2590                 3.8589                 6.6990

                    70                     71                     72
                     A                      A                      A
 Frequencies --  1137.1716              1147.4948              1156.0854
 Red. masses --     1.8046                 3.3884                 1.6319
 Frc consts  --     1.3749                 2.6287                 1.2850
 IR Inten    --    15.5638                23.7228                 2.3154
 Raman Activ --     7.1665                 6.2433                 2.9232

                    73                     74                     75
                     A                      A                      A
 Frequencies --  1160.1768              1166.2738              1179.1784
 Red. masses --     1.7970                 1.9695                 1.6864
 Frc consts  --     1.4251                 1.5784                 1.3816
 IR Inten    --    12.6106                 3.2550                 8.8959
 Raman Activ --     2.7915                 3.0763                 1.9226

                    76                     77                     78
                     A                      A                      A
 Frequencies --  1204.0838              1209.7716              1211.8190
 Red. masses --     1.5359                 1.2809                 1.2994
 Frc consts  --     1.3119                 1.1045                 1.1242
 IR Inten    --    23.9300                15.2507                 5.4250
 Raman Activ --     4.8171                 1.9064                 1.7324

                    79                     80                     81
                     A                      A                      A
 Frequencies --  1218.0843              1230.0717              1252.6302
 Red. masses --     1.3277                 1.2269                 1.4221
 Frc consts  --     1.1606                 1.0937                 1.3147
 IR Inten    --     1.5559                 0.5805                14.5987
 Raman Activ --     0.2611                 0.8150                 0.5866

                    82                     83                     84
                     A                      A                      A
 Frequencies --  1265.3037              1271.2168              1279.3613
 Red. masses --     1.1857                 1.2410                 1.3794
 Frc consts  --     1.1185                 1.1815                 1.3302
 IR Inten    --     1.9973                21.6584                29.8178
 Raman Activ --     3.5015                 4.7739                 1.5893

                    85                     86                     87
                     A                      A                      A
 Frequencies --  1295.1283              1298.4764              1302.9452
 Red. masses --     1.2713                 1.4080                 1.3222
 Frc consts  --     1.2564                 1.3987                 1.3225
 IR Inten    --    10.1839                23.7709                14.0413
 Raman Activ --     1.3805                 2.1751                 0.4372

                    88                     89                     90
                     A                      A                      A
 Frequencies --  1309.7323              1322.0200              1329.2334
 Red. masses --     1.2396                 1.1826                 1.3724
 Frc consts  --     1.2528                 1.2178                 1.4287
 IR Inten    --    26.3975                 7.9568                34.2927
 Raman Activ --     6.6171                 9.2915                 7.0304

                    91                     92                     93
                     A                      A                      A
 Frequencies --  1331.8012              1345.1619              1350.4602
 Red. masses --     1.2055                 1.2427                 1.5429
 Frc consts  --     1.2598                 1.3248                 1.6579
 IR Inten    --    28.9014                37.3930                18.0238
 Raman Activ --     0.7737                 3.2329                 8.0582

                    94                     95                     96
                     A                      A                      A
 Frequencies --  1354.2880              1356.3022              1359.4873
 Red. masses --     1.2453                 1.1291                 1.4539
 Frc consts  --     1.3457                 1.2238                 1.5832
 IR Inten    --     9.1102                28.1448                21.8580
 Raman Activ --     2.4172                 1.9165                 7.1501

                    97                     98                     99
                     A                      A                      A
 Frequencies --  1385.3950              1393.3517              1399.0197
 Red. masses --     1.5579                 1.4373                 1.3453
 Frc consts  --     1.7618                 1.6440                 1.5514
 IR Inten    --     9.0388                 3.5669                 8.7469
 Raman Activ --     6.7120                 6.6451                 6.2938

                   100                    101                    102
                     A                      A                      A
 Frequencies --  1416.7587              1430.6021              1468.9185
 Red. masses --     1.4541                 1.4892                 1.2724
 Frc consts  --     1.7196                 1.7958                 1.6176
 IR Inten    --    27.4236                31.6149                36.1266
 Raman Activ --     0.7055                 0.8315                 1.7242

                   103                    104                    105
                     A                      A                      A
 Frequencies --  1472.6892              1473.5927              1473.9885
 Red. masses --     1.1646                 1.1070                 1.1999
 Frc consts  --     1.4881                 1.4163                 1.5359
 IR Inten    --    20.4264                 7.1517                15.6176
 Raman Activ --     4.0806                 4.1409                 2.5565

                   106                    107                    108
                     A                      A                      A
 Frequencies --  1487.5608              1534.9188              3251.3645
 Red. masses --     1.3576                 1.2919                 1.0590
 Frc consts  --     1.7700                 1.7932                 6.5961
 IR Inten    --    19.9210                55.0228                26.2553
 Raman Activ --     0.8912                 2.0503                83.5045

                   109                    110                    111
                     A                      A                      A
 Frequencies --  3254.8081              3263.5031              3265.0686
 Red. masses --     1.0803                 1.0816                 1.0584
 Frc consts  --     6.7429                 6.7870                 6.6481
 IR Inten    --    22.4072                16.5862                83.9325
 Raman Activ --    68.6102                14.7370                50.5023

                   112                    113                    114
                     A                      A                      A
 Frequencies --  3266.5444              3276.6224              3282.8731
 Red. masses --     1.0800                 1.0832                 1.0860
 Frc consts  --     6.7899                 6.8518                 6.8958
 IR Inten    --     4.2534                 2.6353                42.3152
 Raman Activ --   193.7816                36.4423                37.2783

                   115                    116                    117
                     A                      A                      A
 Frequencies --  3287.4660              3291.6461              3293.9503
 Red. masses --     1.0855                 1.0825                 1.0815
 Frc consts  --     6.9119                 6.9102                 6.9137
 IR Inten    --    15.5385               108.5616               115.8132
 Raman Activ --   100.4816                61.4909               193.3337

                   118                    119                    120
                     A                      A                      A
 Frequencies --  3296.1927              3302.6252              3305.2599
 Red. masses --     1.0769                 1.1016                 1.0856
 Frc consts  --     6.8935                 7.0793                 6.9873
 IR Inten    --    69.1319                28.0099               181.0576
 Raman Activ --   101.4524                30.4660                44.5645

                   121                    122                    123
                     A                      A                      A
 Frequencies --  3305.6700              3310.5995              3326.4543
 Red. masses --     1.0808                 1.0756                 1.1070
 Frc consts  --     6.9588                 6.9460                 7.2174
 IR Inten    --   286.0528               497.7729                46.2921
 Raman Activ --    32.2019                79.0849                37.3246

                   124                    125                    126
                     A                      A                      A
 Frequencies --  3362.8934              3364.6203              3368.6734
 Red. masses --     1.0668                 1.0664                 1.0693
 Frc consts  --     7.1084                 7.1130                 7.1493
 IR Inten    --    36.0452                40.3106                72.7953
 Raman Activ --   137.0998               133.6197               145.2594

                   127                    128                    129
                     A                      A                      A
 Frequencies --  3372.4488              3889.4653              3890.9804
 Red. masses --     1.0649                 1.0678                 1.0673
 Frc consts  --     7.1359                 9.5172                 9.5204
 IR Inten    --    25.2318                85.2312                62.4709
 Raman Activ --   121.7035                76.9083               134.9904

 - Thermochemistry -
 -------------------
 Temperature   298.150 Kelvin.  Pressure   1.00000 Atm.
 Atom     1 has atomic number  8 and mass  15.99491

 Molecular mass:   342.11621 amu.
 Principal axes and moments of inertia in atomic units:
                           1         2         3
     Eigenvalues --  4400.68897********************
           X            0.99997  -0.00769   0.00078
           Y            0.00769   0.99997  -0.00131
           Z           -0.00077   0.00132   1.00000
 This molecule is an asymmetric top.
 Rotational symmetry number  1.
 Warning -- assumption of classical behavior for rotation
           may cause significant error
 Rotational temperatures (Kelvin)      0.01968     0.00693     0.00524
 Rotational constants (GHZ):           0.41010     0.14436     0.10912
    6 imaginary frequencies ignored.
 Zero-point vibrational energy     973248.6 (Joules/Mol)
                                  232.61199 (Kcal/Mol)
 Warning -- explicit consideration of  33 degrees of freedom as
           vibrations may cause significant error
 Vibrational temperatures:     22.27    63.94    83.38    98.33   117.96
          (Kelvin)            162.54   221.13   250.06   270.35   285.38
                              336.26   372.18   390.22   406.27   429.92
                              448.26   456.36   458.03   484.93   512.07
                              544.03   576.68   590.93   617.23   631.86
                              687.64   701.48   723.20   766.52   819.16
                              850.82   869.93   892.43   914.07   924.79
                             1011.12  1019.59  1034.64  1108.10  1127.58
                             1191.36  1223.34  1242.05  1307.69  1348.65
                             1404.43  1414.62  1417.35  1443.05  1446.93
                             1460.76  1497.75  1511.33  1528.21  1537.79
                             1546.83  1555.05  1581.20  1586.35  1594.36
                             1603.52  1620.97  1629.12  1636.13  1650.99
                             1663.35  1669.23  1678.01  1696.57  1732.41
                             1740.59  1743.54  1752.55  1769.80  1802.25
                             1820.49  1829.00  1840.71  1863.40  1868.22
                             1874.65  1884.41  1902.09  1912.47  1916.16
                             1935.39  1943.01  1948.52  1951.41  1956.00
                             1993.27  2004.72  2012.87  2038.40  2058.31
                             2113.44  2118.87  2120.17  2120.74  2140.27
                             2208.40  4677.98  4682.94  4695.45  4697.70
                             4699.82  4714.32  4723.32  4729.92  4735.94
                             4739.25  4742.48  4751.74  4755.53  4756.12
                             4763.21  4786.02  4838.45  4840.93  4846.76
                             4852.20  5596.07  5598.25

 Zero-point correction=                           0.370691 (Hartree/Particle)
 Thermal correction to Energy=                    0.390088
 Thermal correction to Enthalpy=                  0.391033
 Thermal correction to Gibbs Free Energy=         0.322250
 Sum of electronic and zero-point Energies=          -1297.612656
 Sum of electronic and thermal Energies=             -1297.593258
 Sum of electronic and thermal Enthalpies=           -1297.592314
 Sum of electronic and thermal Free Energies=        -1297.661097

                     E (Thermal)             CV                S
                      KCal/Mol        Cal/Mol-Kelvin    Cal/Mol-Kelvin
 Total                  244.784             78.189            144.765
 Electronic               0.000              0.000              0.000
 Translational            0.889              2.981             43.384
 Rotational               0.889              2.981             35.163
 Vibrational            243.007             72.227             66.218
 Vibration     1          0.593              1.986              7.143
 Vibration     2          0.595              1.980              5.051
 Vibration     3          0.596              1.974              4.526
 Vibration     4          0.598              1.969              4.201
 Vibration     5          0.600              1.961              3.843
 Vibration     6          0.607              1.939              3.217
 Vibration     7          0.619              1.899              2.626
 Vibration     8          0.627              1.875              2.394
 Vibration     9          0.633              1.856              2.248
 Vibration    10          0.637              1.842              2.148
 Vibration    11          0.654              1.789              1.850
 Vibration    12          0.667              1.748              1.671
 Vibration    13          0.675              1.726              1.588
 Vibration    14          0.681              1.706              1.519
 Vibration    15          0.692              1.676              1.424
 Vibration    16          0.700              1.652              1.354
 Vibration    17          0.704              1.641              1.325
 Vibration    18          0.705              1.639              1.319
 Vibration    19          0.718              1.602              1.226
 Vibration    20          0.731              1.563              1.140
 Vibration    21          0.748              1.517              1.047
 Vibration    22          0.767              1.468              0.960
 Vibration    23          0.775              1.447              0.924
 Vibration    24          0.790              1.407              0.862
 Vibration    25          0.799              1.385              0.829
 Vibration    26          0.834              1.299              0.716
 Vibration    27          0.843              1.278              0.690
 Vibration    28          0.858              1.244              0.652
 Vibration    29          0.888              1.178              0.581
 Vibration    30          0.925              1.098              0.505
 Vibration    31          0.949              1.050              0.465
 Vibration    32          0.963              1.022              0.442
 Vibration    33          0.980              0.989              0.416

 Normal termination of Gaussian 09 at Tue Mar 29 18:16:57 2016.
