 Gaussian 09, Revision B.01,
 Gaussian 09:  EM64L-G09RevB.01 12-Aug-2010

 -------------------------------------------------
 # freq=raman b3lyp/6-31+g(df,p) geom=connectivity
 -------------------------------------------------

 ------------
 280 5000.com
 ------------
 Symbolic Z-matrix:
 Charge =  0 Multiplicity = 1

                         Standard orientation:
 ---------------------------------------------------------------------
 Center     Atomic      Atomic             Coordinates (Angstroms)
 Number     Number       Type             X           Y           Z
 ---------------------------------------------------------------------
      1          8           0       -5.139455   -0.365373    0.326793
      2          6           0       -3.783398   -0.193342   -0.109493
      3          6           0       -3.323981    1.222267    0.200734
      4          8           0       -4.101798    2.226482   -0.465952
      5          1           0       -5.076285    1.999782   -0.468869
      6          6           0       -1.866506    1.485840   -0.138757
      7          8           0       -1.429196    2.788056    0.278463
      8          1           0       -0.473131    2.901532    0.006800
      9          6           0       -3.026971   -2.591842   -0.127220
     10          8           0       -4.216197   -3.249824    0.332368
     11          1           0       -4.141718   -4.235029    0.178066
     12          6           0       -2.740805   -1.186149    0.376847
     13          8           0       -1.399537   -0.845249   -0.002121
     14          6           0       -0.908352    0.439726    0.407603
     15          8           0        0.257328    0.587611   -0.415315
     16          6           0        1.543157    0.193878    0.086129
     17          6           0        2.111358   -1.072118   -0.533397
     18          8           0        1.256678   -2.218578   -0.409455
     19          1           0        0.327523   -1.860696   -0.509355
     20          6           0        3.413415   -1.494572    0.129133
     21          8           0        3.950480   -2.675102   -0.485197
     22          1           0        4.838048   -2.941166   -0.109370
     23          6           0        2.238699    2.634355    0.154980
     24          8           0        1.082512    3.310936   -0.359849
     25          1           0        1.238923    4.272315   -0.136964
     26          6           0        2.607035    1.220394   -0.263978
     27          8           0        3.805546    0.903596    0.459345
     28          6           0        4.375928   -0.327233   -0.009816
     29          8           0        5.557568   -0.608145    0.744980
     30          1           0       -5.699086   -0.546897   -0.431799
     31          1           0       -3.440599    1.371676    1.253814
     32          1           0       -3.801122   -0.279525   -1.175870
     33          1           0       -1.786090    1.455822   -1.205309
     34          1           0       -2.783587   -1.206141    1.445805
     35          1           0       -2.193310   -3.207053    0.140035
     36          1           0       -3.073464   -2.549019   -1.195351
     37          1           0       -0.714499    0.522889    1.456605
     38          1           0        3.082189    3.251381   -0.074591
     39          1           0        2.802406    1.194370   -1.315668
     40          1           0        1.492659    0.079990    1.148851
     41          1           0        2.296353   -0.892084   -1.571792
     42          1           0        3.236449   -1.685436    1.166993
     43          1           0        4.640389   -0.216388   -1.040676
     44          1           0        2.137156    2.621590    1.220074
     45          1           0        6.261907   -0.874413    0.149490
 ---------------------------------------------------------------------

 SCF Done:  E(RB3LYP) =  -1297.96900189     A.U. after   14 cycles

 The electronic state is 1-A.
 Alpha  occ. eigenvalues --  -19.20089 -19.19480 -19.19190 -19.19138 -19.18996
 Alpha  occ. eigenvalues --  -19.17635 -19.17269 -19.17007 -19.15515 -19.14980
 Alpha  occ. eigenvalues --  -19.13034 -10.31165 -10.31071 -10.26954 -10.26244
 Alpha  occ. eigenvalues --  -10.25983 -10.25786 -10.25250 -10.25148 -10.24681
 Alpha  occ. eigenvalues --  -10.24402 -10.23992 -10.23694  -1.10059  -1.09380
 Alpha  occ. eigenvalues --   -1.06129  -1.05022  -1.04310  -1.03823  -1.03011
 Alpha  occ. eigenvalues --   -1.02524  -1.01454  -1.00749  -0.99161  -0.82860
 Alpha  occ. eigenvalues --   -0.80298  -0.79730  -0.78202  -0.72258  -0.69913
 Alpha  occ. eigenvalues --   -0.67307  -0.64953  -0.63183  -0.62684  -0.62005
 Alpha  occ. eigenvalues --   -0.59969  -0.56652  -0.55949  -0.55226  -0.55025
 Alpha  occ. eigenvalues --   -0.54194  -0.53693  -0.53067  -0.51757  -0.50922
 Alpha  occ. eigenvalues --   -0.50684  -0.50329  -0.49626  -0.48682  -0.46793
 Alpha  occ. eigenvalues --   -0.46204  -0.45339  -0.44272  -0.43788  -0.43473
 Alpha  occ. eigenvalues --   -0.42556  -0.41628  -0.40985  -0.40558  -0.39810
 Alpha  occ. eigenvalues --   -0.38435  -0.38083  -0.37861  -0.36056  -0.35390
 Alpha  occ. eigenvalues --   -0.35152  -0.34703  -0.34435  -0.34350  -0.33522
 Alpha  occ. eigenvalues --   -0.32868  -0.31535  -0.31360  -0.30510  -0.29704
 Alpha  occ. eigenvalues --   -0.29372  -0.28804  -0.28718  -0.27060  -0.26729
 Alpha  occ. eigenvalues --   -0.26078
 Alpha virt. eigenvalues --   -0.02306  -0.02117  -0.01902  -0.00385   0.00030
 Alpha virt. eigenvalues --    0.00890   0.01638   0.02341   0.03015   0.03424
 Alpha virt. eigenvalues --    0.03733   0.04345   0.04521   0.05162   0.05718

 Mulliken atomic charges:
              1
     1  O   -0.489348
     2  C   -0.327987
     3  C    0.088098
     4  O   -0.494983
     5  H    0.360915
     6  C    0.045559
     7  O   -0.552222
     8  H    0.479094
     9  C   -0.071524
    10  O   -0.520517
    11  H    0.369893
    12  C    0.131228
    13  O   -0.315586
    14  C    0.068978
    15  O   -0.213571
    16  C   -0.271543
    17  C   -0.099747
    18  O   -0.468299
    19  H    0.409418
    20  C    0.120241
    21  O   -0.490902
    22  H    0.360188
    23  C   -0.180002
    24  O   -0.571569
    25  H    0.389975
    26  C    0.099649
    27  O   -0.231325
    28  C    0.100305
    29  O   -0.538202
    30  H    0.381621
    31  H    0.145666
    32  H    0.134996
    33  H    0.156737
    34  H    0.144112
    35  H    0.146477
    36  H    0.137772
    37  H    0.147598
    38  H    0.146620
    39  H    0.151317
    40  H    0.142717
    41  H    0.145651
    42  H    0.159663
    43  H    0.136397
    44  H    0.157755
    45  H    0.378690
 Sum of Mulliken atomic charges =   0.00000

 Dipole moment (field-independent basis, Debye):
    X=              2.9198    Y=             -0.5484    Z=             -1.5618  Tot=              3.3564
 Quadrupole moment (field-independent basis, Debye-Ang):
   XX=           -119.4950   YY=           -136.0653   ZZ=           -140.1763
   XY=             15.0641   XZ=              2.4097   YZ=              0.4931

  Exact polarizability: 229.396  -1.828 192.902   1.502   0.772 141.917
 Approx polarizability: 266.475  -2.095 248.526   1.319   0.765 230.717

 ******    7 imaginary frequencies (negative Signs) ******

                     1                      2                      3
                     A                      A                      A
 Frequencies --  -300.8973              -285.1403              -283.8069
 Red. masses --     1.1876                 1.5345                 1.7270
 Frc consts  --     0.0634                 0.0735                 0.0820
 IR Inten    --   137.0135                57.6301                 2.3947
 Raman Activ --     1.3713                 0.2959                 0.0211

                     4                      5                      6
                     A                      A                      A
 Frequencies --  -252.1224               -72.3804               -47.9701
 Red. masses --     1.3483                 6.6657                 6.3760
 Frc consts  --     0.0505                 0.0206                 0.0086
 IR Inten    --    66.6027                 0.9363                 0.0865
 Raman Activ --     0.6115                 0.0262                 0.0264

                     7                      8                      9
                     A                      A                      A
 Frequencies --   -30.5853                46.6308                53.5993
 Red. masses --     6.3466                 6.7397                 6.5721
 Frc consts  --     0.0035                 0.0086                 0.0111
 IR Inten    --     2.3353                 0.0386                 0.9112
 Raman Activ --     0.0390                 0.0124                 0.0855

                    10                     11                     12
                     A                      A                      A
 Frequencies --    76.2135                81.1922               131.3855
 Red. masses --     6.7582                 7.0566                 5.6107
 Frc consts  --     0.0231                 0.0274                 0.0571
 IR Inten    --     0.2632                 1.1948                 1.2194
 Raman Activ --     0.3073                 0.0354                 0.0441

                    13                     14                     15
                     A                      A                      A
 Frequencies --   150.3416               177.7667               185.5608
 Red. masses --     6.1175                 5.8984                 7.8396
 Frc consts  --     0.0815                 0.1098                 0.1590
 IR Inten    --     2.7354                 3.5599                 2.2451
 Raman Activ --     0.3644                 0.4310                 0.6905

                    16                     17                     18
                     A                      A                      A
 Frequencies --   213.2977               230.5174               250.0714
 Red. masses --     7.1268                 5.7425                 4.5803
 Frc consts  --     0.1910                 0.1798                 0.1688
 IR Inten    --     0.0437                 4.7054                22.0131
 Raman Activ --     2.1289                 0.8365                 0.1645

                    19                     20                     21
                     A                      A                      A
 Frequencies --   284.3062               292.6613               298.1189
 Red. masses --     4.2390                 4.4840                 5.4822
 Frc consts  --     0.2019                 0.2263                 0.2871
 IR Inten    --     1.6239                 2.0998                 3.8382
 Raman Activ --     0.2187                 0.4051                 0.5617

                    22                     23                     24
                     A                      A                      A
 Frequencies --   311.1312               316.1652               317.5741
 Red. masses --     5.2477                 6.0033                 7.1160
 Frc consts  --     0.2993                 0.3536                 0.4228
 IR Inten    --     6.1896                 1.7267                 4.0859
 Raman Activ --     0.3147                 3.4394                 3.1915

                    25                     26                     27
                     A                      A                      A
 Frequencies --   343.9612               356.9996               377.2332
 Red. masses --     5.8544                 5.3625                 5.1975
 Frc consts  --     0.4081                 0.4027                 0.4358
 IR Inten    --    14.5508                 1.5798                 1.3927
 Raman Activ --     1.0457                 1.5853                 0.3453

                    28                     29                     30
                     A                      A                      A
 Frequencies --   401.5200               421.1662               432.0488
 Red. masses --     4.2701                 6.5950                 5.3293
 Frc consts  --     0.4056                 0.6892                 0.5861
 IR Inten    --    14.0003                 3.3875                 1.0186
 Raman Activ --     2.2875                 6.4373                 2.9999

                    31                     32                     33
                     A                      A                      A
 Frequencies --   437.2746               469.0623               487.0647
 Red. masses --     4.9984                 4.4110                 4.2773
 Frc consts  --     0.5631                 0.5718                 0.5979
 IR Inten    --     3.1478                 3.6080                16.4259
 Raman Activ --     1.6201                 3.5928                 1.2999

                    34                     35                     36
                     A                      A                      A
 Frequencies --   511.0971               520.7498               567.3892
 Red. masses --     3.2213                 3.4184                 4.4212
 Frc consts  --     0.4958                 0.5462                 0.8386
 IR Inten    --    10.6666                 4.6612                17.8671
 Raman Activ --     2.5337                 3.4861                 1.9168

                    37                     38                     39
                     A                      A                      A
 Frequencies --   585.1426               597.7384               608.0815
 Red. masses --     3.9312                 3.7619                 5.6020
 Frc consts  --     0.7930                 0.7919                 1.2204
 IR Inten    --    10.8996                21.7405                25.3577
 Raman Activ --     0.7294                 1.0090                 0.8052

                    40                     41                     42
                     A                      A                      A
 Frequencies --   628.2897               676.9661               683.2847
 Red. masses --     3.5181                 2.7870                 1.2900
 Frc consts  --     0.8182                 0.7525                 0.3549
 IR Inten    --    19.1606                49.1889                74.6956
 Raman Activ --     0.5159                 1.0403                 2.7499

                    43                     44                     45
                     A                      A                      A
 Frequencies --   695.2258               712.8966               745.4926
 Red. masses --     1.0519                 1.0567                 1.0998
 Frc consts  --     0.2996                 0.3164                 0.3601
 IR Inten    --    98.5527                98.2024               106.1384
 Raman Activ --     2.1418                 2.0825                 1.5070

                    46                     47                     48
                     A                      A                      A
 Frequencies --   794.2039               848.5285               853.7744
 Red. masses --     1.0800                 1.7606                 1.5091
 Frc consts  --     0.4014                 0.7468                 0.6481
 IR Inten    --    98.1385                 5.9573                12.9917
 Raman Activ --     1.8024                 0.5729                 0.5363

                    49                     50                     51
                     A                      A                      A
 Frequencies --   888.4695               924.8919               964.3914
 Red. masses --     1.2078                 4.7635                 3.5378
 Frc consts  --     0.5617                 2.4008                 1.9386
 IR Inten    --    75.7923                54.5551                59.4248
 Raman Activ --     0.8587                 1.8188                 0.7526

                    52                     53                     54
                     A                      A                      A
 Frequencies --   979.3507               999.2851              1001.8547
 Red. masses --     5.0772                 5.2355                 5.2840
 Frc consts  --     2.8692                 3.0802                 3.1248
 IR Inten    --     9.3666                 4.1846               295.1361
 Raman Activ --     3.8408                 1.9450                 0.6358

                    55                     56                     57
                     A                      A                      A
 Frequencies --  1013.9578              1020.7665              1033.5542
 Red. masses --     5.8893                 5.8920                 4.1716
 Frc consts  --     3.5674                 3.6171                 2.6255
 IR Inten    --   177.7017                28.1841               188.6772
 Raman Activ --     1.6614                 2.8519                 3.0292

                    58                     59                     60
                     A                      A                      A
 Frequencies --  1048.2973              1057.2986              1072.1245
 Red. masses --     4.5563                 3.8287                 3.7798
 Frc consts  --     2.9501                 2.5218                 2.5598
 IR Inten    --   446.4697               136.3055                44.4382
 Raman Activ --     1.3388                 5.3153                 5.5339

                    61                     62                     63
                     A                      A                      A
 Frequencies --  1077.8301              1081.4212              1085.8597
 Red. masses --     3.6456                 5.0743                 2.9244
 Frc consts  --     2.4953                 3.4964                 2.0316
 IR Inten    --    20.0830               174.8269                41.2725
 Raman Activ --     1.7593                 2.4585                 6.3148

                    64                     65                     66
                     A                      A                      A
 Frequencies --  1095.5167              1104.5238              1116.8365
 Red. masses --     2.4814                 2.9289                 2.6816
 Frc consts  --     1.7546                 2.1053                 1.9707
 IR Inten    --    36.6603                 8.7964                24.0580
 Raman Activ --     5.5864                14.0018                 4.6899

                    67                     68                     69
                     A                      A                      A
 Frequencies --  1123.4615              1126.6416              1132.2966
 Red. masses --     2.2788                 2.9060                 2.2045
 Frc consts  --     1.6946                 2.1733                 1.6653
 IR Inten    --    56.9584                 9.6679                50.1873
 Raman Activ --     4.2042                 8.5188                11.8518

                    70                     71                     72
                     A                      A                      A
 Frequencies --  1142.8912              1149.7651              1156.9450
 Red. masses --     2.6618                 2.3752                 1.9895
 Frc consts  --     2.0485                 1.8500                 1.5690
 IR Inten    --     9.2429                 4.5182                 9.8427
 Raman Activ --     3.8689                 5.3486                 2.2285

                    73                     74                     75
                     A                      A                      A
 Frequencies --  1166.0063              1176.1708              1186.3983
 Red. masses --     2.2608                 1.8853                 2.1509
 Frc consts  --     1.8110                 1.5366                 1.7837
 IR Inten    --    56.7312                 6.5149                16.8096
 Raman Activ --     4.8796                 2.8891                 2.1703

                    76                     77                     78
                     A                      A                      A
 Frequencies --  1200.2823              1210.1036              1210.6297
 Red. masses --     1.5280                 1.2475                 1.2368
 Frc consts  --     1.2970                 1.0763                 1.0680
 IR Inten    --    10.5869                 3.2935                18.6396
 Raman Activ --     2.8280                 1.3925                 4.9166

                    79                     80                     81
                     A                      A                      A
 Frequencies --  1222.5141              1236.6624              1250.2207
 Red. masses --     1.3211                 1.3834                 1.2500
 Frc consts  --     1.1633                 1.2465                 1.1512
 IR Inten    --     5.4853                25.5190                11.3912
 Raman Activ --     2.1996                 1.6282                 1.0190

                    82                     83                     84
                     A                      A                      A
 Frequencies --  1254.4752              1275.2035              1287.9944
 Red. masses --     1.1959                 1.3863                 1.3505
 Frc consts  --     1.1089                 1.3282                 1.3200
 IR Inten    --    20.3593                54.4439                 7.4256
 Raman Activ --     1.3633                 4.4388                 1.3008

                    85                     86                     87
                     A                      A                      A
 Frequencies --  1288.9648              1293.3274              1297.8132
 Red. masses --     1.2287                 1.2873                 1.2111
 Frc consts  --     1.2028                 1.2687                 1.2018
 IR Inten    --     8.2872                 5.2063                25.7040
 Raman Activ --     8.9514                 1.1994                 3.1425

                    88                     89                     90
                     A                      A                      A
 Frequencies --  1305.2335              1315.2384              1326.1173
 Red. masses --     1.2545                 1.2406                 1.1858
 Frc consts  --     1.2592                 1.2645                 1.2287
 IR Inten    --    28.1328                14.0547                48.0144
 Raman Activ --     6.9657                 8.4236                 2.3040

                    91                     92                     93
                     A                      A                      A
 Frequencies --  1327.8672              1332.7179              1340.3524
 Red. masses --     1.3545                 1.2974                 1.3844
 Frc consts  --     1.4072                 1.3577                 1.4654
 IR Inten    --     8.8472                 3.6944                43.2468
 Raman Activ --     1.5652                 6.4231                 3.1620

                    94                     95                     96
                     A                      A                      A
 Frequencies --  1354.8534              1359.8003              1364.6436
 Red. masses --     1.3373                 1.3294                 1.5956
 Frc consts  --     1.4463                 1.4483                 1.7507
 IR Inten    --     6.2689                22.6851                22.9948
 Raman Activ --     4.2151                12.8973                 7.8217

                    97                     98                     99
                     A                      A                      A
 Frequencies --  1370.7092              1386.5939              1391.1933
 Red. masses --     1.2902                 1.4775                 1.4667
 Frc consts  --     1.4282                 1.6737                 1.6725
 IR Inten    --    12.2415                26.8983                 4.8147
 Raman Activ --     1.7902                 0.5702                 2.8651

                   100                    101                    102
                     A                      A                      A
 Frequencies --  1391.5100              1408.5021              1445.3658
 Red. masses --     1.6900                 1.5060                 1.4225
 Frc consts  --     1.9280                 1.7603                 1.7509
 IR Inten    --    16.1144                 6.6064                10.8032
 Raman Activ --     2.5634                 6.4107                 1.8481

                   103                    104                    105
                     A                      A                      A
 Frequencies --  1470.3052              1474.6246              1475.3003
 Red. masses --     1.1167                 1.1727                 1.2416
 Frc consts  --     1.4223                 1.5025                 1.5922
 IR Inten    --    13.9262                 3.6396                11.1032
 Raman Activ --     5.3924                 3.1191                 1.9013

                   106                    107                    108
                     A                      A                      A
 Frequencies --  1493.5951              1519.0798              3236.6605
 Red. masses --     1.2845                 1.2382                 1.0691
 Frc consts  --     1.6882                 1.6835                 6.5985
 IR Inten    --    41.6311                44.4242              1042.3243
 Raman Activ --     1.4103                 0.8065               153.0134

                   109                    110                    111
                     A                      A                      A
 Frequencies --  3260.5554              3268.1336              3270.8151
 Red. masses --     1.0581                 1.0593                 1.0813
 Frc consts  --     6.6276                 6.6663                 6.8155
 IR Inten    --    34.3250                24.3837                 1.4062
 Raman Activ --    75.9502               189.3594               140.4925

                   112                    113                    114
                     A                      A                      A
 Frequencies --  3277.7844              3278.4659              3282.9555
 Red. masses --     1.0835                 1.0821                 1.0848
 Frc consts  --     6.8589                 6.8529                 6.8885
 IR Inten    --    21.2348                16.0543                 8.9009
 Raman Activ --    13.2167                13.7841                31.9954

                   115                    116                    117
                     A                      A                      A
 Frequencies --  3288.1574              3289.5356              3298.7588
 Red. masses --     1.0847                 1.0837                 1.0863
 Frc consts  --     6.9101                 6.9092                 6.9648
 IR Inten    --    16.7591                10.9182                43.1216
 Raman Activ --    25.9488               245.6101                15.6555

                   118                    119                    120
                     A                      A                      A
 Frequencies --  3299.8834              3310.4865              3315.3092
 Red. masses --     1.0866                 1.0885                 1.1045
 Frc consts  --     6.9711                 7.0288                 7.1528
 IR Inten    --    16.8392                39.7447                41.3371
 Raman Activ --     4.2421                 9.1770                35.2326

                   121                    122                    123
                     A                      A                      A
 Frequencies --  3317.7163              3319.9878              3340.5969
 Red. masses --     1.0902                 1.1001                 1.0669
 Frc consts  --     7.0703                 7.1443                 7.0150
 IR Inten    --    25.0395               100.6445               283.5439
 Raman Activ --    37.0818                41.7655               158.9191

                   124                    125                    126
                     A                      A                      A
 Frequencies --  3367.8719              3374.9774              3375.2350
 Red. masses --     1.0662                 1.0679                 1.0667
 Frc consts  --     7.1250                 7.1667                 7.1595
 IR Inten    --    26.3363                42.7386                37.9091
 Raman Activ --   133.8563               151.5866               185.7380

                   127                    128                    129
                     A                      A                      A
 Frequencies --  3393.2184              3898.9825              3903.1237
 Red. masses --     1.0663                 1.0679                 1.0675
 Frc consts  --     7.2334                 9.5647                 9.5813
 IR Inten    --    63.4948                74.5553                74.6749
 Raman Activ --   134.7249                84.1481               102.0427

 - Thermochemistry -
 -------------------
 Temperature   298.150 Kelvin.  Pressure   1.00000 Atm.
 Atom     1 has atomic number  8 and mass  15.99491

 Molecular mass:   342.11621 amu.
 Principal axes and moments of inertia in atomic units:
                           1         2         3
     Eigenvalues --  4416.32430********************
           X            0.99998   0.00704   0.00016
           Y           -0.00704   0.99997   0.00193
           Z           -0.00015  -0.00193   1.00000
 This molecule is an asymmetric top.
 Rotational symmetry number  1.
 Warning -- assumption of classical behavior for rotation
           may cause significant error
 Rotational temperatures (Kelvin)      0.01961     0.00688     0.00523
 Rotational constants (GHZ):           0.40865     0.14329     0.10891
    7 imaginary frequencies ignored.
 Zero-point vibrational energy     974654.7 (Joules/Mol)
                                  232.94806 (Kcal/Mol)
 Warning -- explicit consideration of  32 degrees of freedom as
           vibrations may cause significant error
 Vibrational temperatures:     67.09    77.12   109.65   116.82   189.03
          (Kelvin)            216.31   255.77   266.98   306.89   331.66
                              359.80   409.05   421.07   428.93   447.65
                              454.89   456.92   494.88   513.64   542.75
                              577.70   605.96   621.62   629.14   674.88
                              700.78   735.35   749.24   816.35   841.89
                              860.01   874.89   903.97   974.00   983.09
                             1000.27  1025.70  1072.60  1142.68  1220.84
                             1228.39  1278.31  1330.71  1387.54  1409.07
                             1437.75  1441.44  1458.86  1468.65  1487.05
                             1508.26  1521.22  1542.55  1550.76  1555.92
                             1562.31  1576.20  1589.16  1606.88  1616.41
                             1620.98  1629.12  1644.36  1654.25  1664.58
                             1677.62  1692.25  1706.96  1726.94  1741.07
                             1741.82  1758.92  1779.28  1798.79  1804.91
                             1834.73  1853.13  1854.53  1860.81  1867.26
                             1877.94  1892.33  1907.98  1910.50  1917.48
                             1928.47  1949.33  1956.45  1963.42  1972.14
                             1995.00  2001.61  2002.07  2026.52  2079.56
                             2115.44  2121.65  2122.63  2148.95  2185.61
                             4656.83  4691.21  4702.11  4705.97  4715.99
                             4716.98  4723.43  4730.92  4732.90  4746.17
                             4747.79  4763.05  4769.98  4773.45  4776.72
                             4806.37  4845.61  4855.83  4856.20  4882.08
                             5609.76  5615.72

 Zero-point correction=                           0.371226 (Hartree/Particle)
 Thermal correction to Energy=                    0.389620
 Thermal correction to Enthalpy=                  0.390564
 Thermal correction to Gibbs Free Energy=         0.325476
 Sum of electronic and zero-point Energies=          -1297.597776
 Sum of electronic and thermal Energies=             -1297.579382
 Sum of electronic and thermal Enthalpies=           -1297.578438
 Sum of electronic and thermal Free Energies=        -1297.643526

                     E (Thermal)             CV                S
                      KCal/Mol        Cal/Mol-Kelvin    Cal/Mol-Kelvin
 Total                  244.490             76.003            136.989
 Electronic               0.000              0.000              0.000
 Translational            0.889              2.981             43.384
 Rotational               0.889              2.981             35.176
 Vibrational            242.712             70.041             58.429
 Vibration     1          0.595              1.979              4.955
 Vibration     2          0.596              1.976              4.680
 Vibration     3          0.599              1.965              3.986
 Vibration     4          0.600              1.962              3.862
 Vibration     5          0.612              1.922              2.926
 Vibration     6          0.618              1.902              2.668
 Vibration     7          0.628              1.870              2.352
 Vibration     8          0.632              1.860              2.272
 Vibration     9          0.644              1.821              2.015
 Vibration    10          0.652              1.794              1.875
 Vibration    11          0.663              1.763              1.730
 Vibration    12          0.683              1.703              1.508
 Vibration    13          0.688              1.687              1.459
 Vibration    14          0.691              1.677              1.427
 Vibration    15          0.700              1.652              1.356
 Vibration    16          0.703              1.643              1.330
 Vibration    17          0.704              1.640              1.323
 Vibration    18          0.723              1.588              1.194
 Vibration    19          0.732              1.561              1.135
 Vibration    20          0.748              1.519              1.050
 Vibration    21          0.767              1.467              0.957
 Vibration    22          0.784              1.424              0.888
 Vibration    23          0.793              1.400              0.852
 Vibration    24          0.798              1.389              0.835
 Vibration    25          0.826              1.319              0.740
 Vibration    26          0.843              1.279              0.691
 Vibration    27          0.866              1.225              0.631
 Vibration    28          0.876              1.204              0.608
 Vibration    29          0.923              1.102              0.509
 Vibration    30          0.942              1.064              0.476
 Vibration    31          0.956              1.037              0.454
 Vibration    32          0.967              1.015              0.436

 Normal termination of Gaussian 09 at Sat Mar  5 08:17:38 2016.
