 Gaussian 09, Revision B.01,
 Gaussian 09:  EM64L-G09RevB.01 12-Aug-2010

 -------------------------------------------------
 # freq=raman b3lyp/6-31+g(2d,p) geom=connectivity
 -------------------------------------------------

 -----------------
 280 7386/7386.com
 -----------------
 Symbolic Z-matrix:
 Charge =  0 Multiplicity = 1

                         Standard orientation:
 ---------------------------------------------------------------------
 Center     Atomic      Atomic             Coordinates (Angstroms)
 Number     Number       Type             X           Y           Z
 ---------------------------------------------------------------------
      1          8           0        5.077494   -0.523287   -0.282632
      2          6           0        3.803602   -0.097522    0.220501
      3          6           0        3.281872    1.228984   -0.308475
      4          8           0        4.216370    2.293518   -0.078263
      5          1           0        5.107983    1.888533   -0.282732
      6          6           0        1.861098    1.528915    0.140645
      7          8           0        1.295773    2.748518   -0.361330
      8          1           0        0.410948    2.881478    0.084075
      9          6           0        2.958408   -2.553384    0.232011
     10          8           0        4.157379   -3.252822   -0.129714
     11          1           0        4.034562   -4.244423   -0.104502
     12          6           0        2.731071   -1.103513   -0.165856
     13          8           0        1.389336   -0.773012    0.220812
     14          6           0        0.841672    0.468648   -0.242906
     15          8           0       -0.283869    0.545295    0.643294
     16          6           0       -1.552883    0.306912    0.017195
     17          6           0       -2.001723   -1.100911    0.375151
     18          8           0       -1.068409   -2.051974   -0.157084
     19          1           0       -0.156505   -1.730037    0.099999
     20          6           0       -3.370482   -1.533210   -0.122685
     21          8           0       -3.795700   -2.828145    0.326046
     22          1           0       -4.625984   -3.195000   -0.093353
     23          6           0       -2.398173    2.759357   -0.067842
     24          8           0       -1.163580    3.332013    0.389726
     25          1           0       -1.367317    4.310705    0.406621
     26          6           0       -2.644360    1.315532    0.337143
     27          8           0       -3.833564    0.854853   -0.320955
     28          6           0       -4.358798   -0.405056    0.123301
     29          8           0       -5.404142   -0.809357   -0.772435
     30          1           0       -6.125277   -1.194800   -0.269446
     31          1           0       -3.202663    3.354099    0.311601
     32          1           0       -2.415382    2.813724   -1.136322
     33          1           0       -2.816864    1.293065    1.392907
     34          1           0       -1.395924    0.334176   -1.040879
     35          1           0       -1.994859   -1.188175    1.441565
     36          1           0       -3.280915   -1.614247   -1.185846
     37          1           0       -4.690810   -0.373892    1.140009
     38          1           0        2.139920   -3.115646   -0.166533
     39          1           0        2.884597   -2.596833    1.298578
     40          1           0        5.625541   -0.822988    0.446356
     41          1           0        2.726036   -1.102135   -1.235843
     42          1           0        3.857363   -0.044214    1.287819
     43          1           0        3.229375    1.116329   -1.371232
     44          1           0        1.872258    1.594560    1.208571
     45          1           0        0.579377    0.462412   -1.280240
 ---------------------------------------------------------------------

 SCF Done:  E(RB3LYP) =  -1297.97106568     A.U. after   13 cycles

 The electronic state is 1-A.
 Alpha  occ. eigenvalues --  -19.19514 -19.18293 -19.18091 -19.17740 -19.17537
 Alpha  occ. eigenvalues --  -19.17191 -19.16000 -19.15910 -19.15014 -19.13277
 Alpha  occ. eigenvalues --  -19.12879 -10.30495 -10.30457 -10.26584 -10.25944
 Alpha  occ. eigenvalues --  -10.25387 -10.25228 -10.25075 -10.24320 -10.24099
 Alpha  occ. eigenvalues --  -10.23976 -10.23846 -10.23649  -1.10196  -1.08909
 Alpha  occ. eigenvalues --   -1.06388  -1.05201  -1.03908  -1.03466  -1.02293
 Alpha  occ. eigenvalues --   -1.02049  -1.01842  -1.00286  -0.99832  -0.81950
 Alpha  occ. eigenvalues --   -0.80358  -0.79302  -0.77940  -0.72123  -0.69901
 Alpha  occ. eigenvalues --   -0.67156  -0.65079  -0.63412  -0.62278  -0.61223
 Alpha  occ. eigenvalues --   -0.59853  -0.56467  -0.55999  -0.55096  -0.54901
 Alpha  occ. eigenvalues --   -0.53992  -0.53415  -0.52710  -0.52174  -0.51146
 Alpha  occ. eigenvalues --   -0.50632  -0.49906  -0.49182  -0.48674  -0.46718
 Alpha  occ. eigenvalues --   -0.46101  -0.45565  -0.43872  -0.43598  -0.42906
 Alpha  occ. eigenvalues --   -0.42479  -0.41882  -0.41223  -0.40244  -0.39525
 Alpha  occ. eigenvalues --   -0.38535  -0.38254  -0.37337  -0.35937  -0.35687
 Alpha  occ. eigenvalues --   -0.35367  -0.34566  -0.34161  -0.33924  -0.33076
 Alpha  occ. eigenvalues --   -0.32558  -0.31462  -0.30721  -0.30064  -0.29579
 Alpha  occ. eigenvalues --   -0.29012  -0.28332  -0.27905  -0.26843  -0.26514
 Alpha  occ. eigenvalues --   -0.25976
 Alpha virt. eigenvalues --   -0.02351  -0.01849  -0.01673   0.00040   0.00260
 Alpha virt. eigenvalues --    0.01116   0.02165   0.02197   0.02874   0.03381
 Alpha virt. eigenvalues --    0.03727   0.04187   0.04978   0.05608   0.05761

 Mulliken atomic charges:
              1
     1  O   -0.525585
     2  C   -0.149518
     3  C    0.170760
     4  O   -0.560309
     5  H    0.343216
     6  C    0.061266
     7  O   -0.585699
     8  H    0.423863
     9  C   -0.234682
    10  O   -0.553441
    11  H    0.345834
    12  C    0.275860
    13  O   -0.245095
    14  C    0.148127
    15  O   -0.199711
    16  C    0.145599
    17  C    0.295291
    18  O   -0.567932
    19  H    0.388228
    20  C   -0.026436
    21  O   -0.591263
    22  H    0.337763
    23  C   -0.295726
    24  O   -0.532743
    25  H    0.361052
    26  C   -0.127000
    27  O   -0.267806
    28  C    0.226543
    29  O   -0.551092
    30  H    0.334194
    31  H    0.148088
    32  H    0.162520
    33  H    0.118063
    34  H    0.108638
    35  H    0.116725
    36  H    0.133989
    37  H    0.133275
    38  H    0.146180
    39  H    0.138940
    40  H    0.345252
    41  H    0.106828
    42  H    0.116625
    43  H    0.112242
    44  H    0.127405
    45  H    0.141673
 Sum of Mulliken atomic charges =   0.00000

 Dipole moment (field-independent basis, Debye):
    X=             -3.1531    Y=             -0.2706    Z=              2.3994  Tot=              3.9714
 Quadrupole moment (field-independent basis, Debye-Ang):
   XX=           -119.3375   YY=           -132.0731   ZZ=           -139.3842
   XY=            -15.0771   XZ=             -0.1770   YZ=              2.0731

  Exact polarizability: 234.328   1.772 199.448   0.668   0.039 143.494
 Approx polarizability: 274.431   1.432 258.889   1.143   1.296 239.363

 ******    7 imaginary frequencies (negative Signs) ******

                     1                      2                      3
                     A                      A                      A
 Frequencies --  -339.6095              -307.9136              -249.4677
 Red. masses --     1.1675                 1.6795                 1.8303
 Frc consts  --     0.0793                 0.0938                 0.0671
 IR Inten    --   143.4351                12.6419                 1.3257
 Raman Activ --     1.8291                 0.1248                 0.0378

                     4                      5                      6
                     A                      A                      A
 Frequencies --  -243.0082               -90.2213               -72.4795
 Red. masses --     1.1465                 6.3580                 6.9363
 Frc consts  --     0.0399                 0.0305                 0.0215
 IR Inten    --    95.4657                 0.8002                 1.1978
 Raman Activ --     0.8044                 0.0175                 0.0442

                     7                      8                      9
                     A                      A                      A
 Frequencies --   -39.1788                26.9352                65.2085
 Red. masses --     6.5412                 6.7672                 6.6272
 Frc consts  --     0.0059                 0.0029                 0.0166
 IR Inten    --     0.4132                 0.1814                 1.6455
 Raman Activ --     0.0252                 0.0208                 0.0393

                    10                     11                     12
                     A                      A                      A
 Frequencies --    86.1461                92.2548               117.2677
 Red. masses --     6.3462                 6.4063                 5.6870
 Frc consts  --     0.0277                 0.0321                 0.0461
 IR Inten    --     0.5729                 2.1462                 0.1352
 Raman Activ --     0.3316                 0.0277                 0.0359

                    13                     14                     15
                     A                      A                      A
 Frequencies --   157.7589               172.8932               186.5565
 Red. masses --     5.8084                 6.2526                 7.3373
 Frc consts  --     0.0852                 0.1101                 0.1505
 IR Inten    --     6.4422                 3.0002                 0.0931
 Raman Activ --     0.3597                 0.6082                 0.7046

                    16                     17                     18
                     A                      A                      A
 Frequencies --   212.9915               227.5185               257.0303
 Red. masses --     7.1358                 5.8784                 4.4917
 Frc consts  --     0.1907                 0.1793                 0.1748
 IR Inten    --     0.5849                 1.5066                21.2982
 Raman Activ --     2.8862                 0.3318                 0.4230

                    19                     20                     21
                     A                      A                      A
 Frequencies --   263.5277               289.7985               297.6467
 Red. masses --     4.7594                 5.0908                 5.9731
 Frc consts  --     0.1947                 0.2519                 0.3118
 IR Inten    --     1.9951                 1.3794                11.4125
 Raman Activ --     0.0680                 0.1943                 0.0255

                    22                     23                     24
                     A                      A                      A
 Frequencies --   308.7101               311.4347               318.2535
 Red. masses --     5.0530                 6.0585                 6.1497
 Frc consts  --     0.2837                 0.3462                 0.3670
 IR Inten    --     1.8735                 7.5605                 4.1989
 Raman Activ --     1.9699                 2.2836                 2.4661

                    25                     26                     27
                     A                      A                      A
 Frequencies --   339.2565               354.5910               379.9373
 Red. masses --     6.7312                 4.7679                 8.5095
 Frc consts  --     0.4565                 0.3532                 0.7237
 IR Inten    --    10.8522                 2.7346                 6.7956
 Raman Activ --     3.6855                 0.2803                 2.6593

                    28                     29                     30
                     A                      A                      A
 Frequencies --   400.3388               412.2736               421.6058
 Red. masses --     3.6923                 6.0934                 5.6006
 Frc consts  --     0.3487                 0.6102                 0.5865
 IR Inten    --    15.6616                 1.8025                 3.8587
 Raman Activ --     0.4817                 4.6824                 3.3222

                    31                     32                     33
                     A                      A                      A
 Frequencies --   443.7971               480.0938               492.0660
 Red. masses --     5.0895                 4.5362                 4.4051
 Frc consts  --     0.5906                 0.6160                 0.6284
 IR Inten    --     2.1857                 3.2283                12.6410
 Raman Activ --     1.7554                 0.8715                 4.2639

                    34                     35                     36
                     A                      A                      A
 Frequencies --   505.4648               523.9670               562.0231
 Red. masses --     3.7596                 3.2506                 4.6742
 Frc consts  --     0.5660                 0.5258                 0.8699
 IR Inten    --    16.3742                 1.7745                26.7516
 Raman Activ --     1.5596                 4.8632                 1.5934

                    37                     38                     39
                     A                      A                      A
 Frequencies --   581.0330               602.6585               620.1962
 Red. masses --     4.5141                 3.8078                 4.0558
 Frc consts  --     0.8979                 0.8148                 0.9191
 IR Inten    --     9.7512                13.4599                50.7157
 Raman Activ --     1.4797                 0.1839                 1.8638

                    40                     41                     42
                     A                      A                      A
 Frequencies --   643.3768               660.7724               674.8993
 Red. masses --     4.5713                 1.0851                 1.0472
 Frc consts  --     1.1149                 0.2791                 0.2810
 IR Inten    --     4.7407               109.9906                84.4774
 Raman Activ --     0.4203                 1.7232                 2.0979

                    43                     44                     45
                     A                      A                      A
 Frequencies --   688.4082               721.7498               753.3189
 Red. masses --     5.2319                 1.0964                 1.0734
 Frc consts  --     1.4608                 0.3365                 0.3589
 IR Inten    --     8.2130               109.8471                93.2001
 Raman Activ --     1.7433                 1.6765                 1.5195

                    46                     47                     48
                     A                      A                      A
 Frequencies --   843.2457               850.5821               870.0949
 Red. masses --     1.3691                 1.4950                 1.4510
 Frc consts  --     0.5736                 0.6373                 0.6472
 IR Inten    --    28.6809                28.9896                19.4819
 Raman Activ --     0.9143                 0.5105                 1.2240

                    49                     50                     51
                     A                      A                      A
 Frequencies --   875.9916               907.8661               938.7127
 Red. masses --     1.1620                 4.5262                 4.2883
 Frc consts  --     0.5253                 2.1980                 2.2264
 IR Inten    --    63.7731               151.0459                67.4397
 Raman Activ --     1.7456                 3.3536                 0.5613

                    52                     53                     54
                     A                      A                      A
 Frequencies --   971.9013               976.0225               991.3130
 Red. masses --     4.5936                 6.4995                 6.7888
 Frc consts  --     2.5565                 3.6479                 3.9307
 IR Inten    --   119.1489                47.8065                83.0323
 Raman Activ --     1.1050                 1.7733                 2.3413

                    55                     56                     57
                     A                      A                      A
 Frequencies --   997.8178              1004.4504              1020.3315
 Red. masses --     5.2599                 5.5351                 6.2844
 Frc consts  --     3.0855                 3.2903                 3.8548
 IR Inten    --   307.9312                42.3432                74.9060
 Raman Activ --     2.8424                 2.5879                 2.1650

                    58                     59                     60
                     A                      A                      A
 Frequencies --  1036.0755              1046.4352              1062.3524
 Red. masses --     5.5137                 6.8232                 3.5142
 Frc consts  --     3.4872                 4.4022                 2.3367
 IR Inten    --   441.7266               123.8119                29.4662
 Raman Activ --     3.0597                 2.6188                13.9570

                    61                     62                     63
                     A                      A                      A
 Frequencies --  1070.2096              1073.5771              1077.7906
 Red. masses --     3.3158                 5.5456                 5.8622
 Frc consts  --     2.2375                 3.7659                 4.0122
 IR Inten    --    40.2013                92.3264                 9.5446
 Raman Activ --    11.3163                 5.7660                 7.1860

                    64                     65                     66
                     A                      A                      A
 Frequencies --  1096.2136              1100.4925              1112.9568
 Red. masses --     2.7810                 3.0281                 2.5214
 Frc consts  --     1.9690                 2.1607                 1.8401
 IR Inten    --    63.7752                 0.2722                66.3539
 Raman Activ --     2.8997                 2.5983                 1.7219

                    67                     68                     69
                     A                      A                      A
 Frequencies --  1114.4863              1121.5904              1135.8496
 Red. masses --     2.6582                 2.7037                 2.9508
 Frc consts  --     1.9453                 2.0039                 2.2430
 IR Inten    --    17.9815                 6.4745                63.9060
 Raman Activ --     3.5930                 5.7290                15.0159

                    70                     71                     72
                     A                      A                      A
 Frequencies --  1144.3777              1150.9692              1158.1987
 Red. masses --     2.5444                 1.8925                 1.6292
 Frc consts  --     1.9633                 1.4771                 1.2876
 IR Inten    --    83.2007                 5.1725                11.1488
 Raman Activ --     4.1227                 3.6188                 2.4976

                    73                     74                     75
                     A                      A                      A
 Frequencies --  1172.3245              1194.0785              1198.9154
 Red. masses --     1.9814                 1.7800                 1.4596
 Frc consts  --     1.6044                 1.4953                 1.2361
 IR Inten    --    12.5157                 6.2191                26.8110
 Raman Activ --     5.4634                 2.5903                 4.7671

                    76                     77                     78
                     A                      A                      A
 Frequencies --  1203.4070              1212.4379              1221.6253
 Red. masses --     1.6755                 1.3085                 1.3343
 Frc consts  --     1.4296                 1.1333                 1.1732
 IR Inten    --     3.5379                12.0541                 9.3313
 Raman Activ --     1.3005                 0.7689                 0.6600

                    79                     80                     81
                     A                      A                      A
 Frequencies --  1230.6666              1235.9505              1250.7715
 Red. masses --     1.2750                 1.2687                 1.3131
 Frc consts  --     1.1377                 1.1418                 1.2104
 IR Inten    --    11.5171                 1.5398                14.5977
 Raman Activ --     0.5902                 2.0824                 1.0963

                    82                     83                     84
                     A                      A                      A
 Frequencies --  1272.9268              1281.8362              1285.8924
 Red. masses --     1.3644                 1.1636                 1.2278
 Frc consts  --     1.3026                 1.1264                 1.1961
 IR Inten    --    12.2996                11.8416                12.3093
 Raman Activ --     1.8127                 4.0088                 2.5827

                    85                     86                     87
                     A                      A                      A
 Frequencies --  1295.0113              1296.8845              1311.1999
 Red. masses --     1.2974                 1.2778                 1.3465
 Frc consts  --     1.2820                 1.2662                 1.3640
 IR Inten    --     1.3456                49.4446                 5.6285
 Raman Activ --     1.7975                 6.9339                 4.4213

                    88                     89                     90
                     A                      A                      A
 Frequencies --  1315.4536              1320.3682              1332.4121
 Red. masses --     1.1770                 1.4062                 1.3368
 Frc consts  --     1.2000                 1.4444                 1.3983
 IR Inten    --    24.4919                11.5668                 8.2679
 Raman Activ --     3.3969                 3.3215                 3.9443

                    91                     92                     93
                     A                      A                      A
 Frequencies --  1335.4543              1341.9150              1352.6316
 Red. masses --     1.2636                 1.1620                 1.5495
 Frc consts  --     1.3278                 1.2328                 1.6703
 IR Inten    --     6.9248                38.0959                 9.3192
 Raman Activ --     5.6731                 4.6963                 3.7206

                    94                     95                     96
                     A                      A                      A
 Frequencies --  1355.1506              1364.3156              1369.2485
 Red. masses --     1.2094                 1.2295                 1.5533
 Frc consts  --     1.3086                 1.3484                 1.7158
 IR Inten    --    12.6410                64.8203                 8.0841
 Raman Activ --     0.8251                 3.4275                12.4374

                    97                     98                     99
                     A                      A                      A
 Frequencies --  1390.4180              1396.5702              1403.2554
 Red. masses --     1.3986                 1.3702                 1.4223
 Frc consts  --     1.5931                 1.5746                 1.6501
 IR Inten    --     4.1195                10.5175                 3.1107
 Raman Activ --     5.0775                 2.0993                 3.5396

                   100                    101                    102
                     A                      A                      A
 Frequencies --  1405.4655              1449.7809              1462.9917
 Red. masses --     1.4100                 1.3700                 1.3014
 Frc consts  --     1.6410                 1.6966                 1.6412
 IR Inten    --     0.9875                32.1676                40.1007
 Raman Activ --     7.1888                 0.9626                 1.9379

                   103                    104                    105
                     A                      A                      A
 Frequencies --  1472.7404              1475.3666              1483.1401
 Red. masses --     1.0952                 1.0743                 1.4225
 Frc consts  --     1.3996                 1.3777                 1.8436
 IR Inten    --     1.6854                 3.6989                52.2095
 Raman Activ --     3.3478                 5.6357                 2.1621

                   106                    107                    108
                     A                      A                      A
 Frequencies --  1506.1222              1516.6951              3251.6814
 Red. masses --     1.2872                 1.2505                 1.0698
 Frc consts  --     1.7203                 1.6949                 6.6643
 IR Inten    --    29.1135                46.6742                14.8089
 Raman Activ --     0.8500                 2.0018                25.5807

                   109                    110                    111
                     A                      A                      A
 Frequencies --  3255.6605              3259.4828              3262.0835
 Red. masses --     1.0682                 1.0637                 1.0779
 Frc consts  --     6.6711                 6.6586                 6.7583
 IR Inten    --    44.5795               306.1193                49.9988
 Raman Activ --   156.0522                28.3570                97.9500

                   112                    113                    114
                     A                      A                      A
 Frequencies --  3266.4230              3266.8362              3270.6672
 Red. masses --     1.0784                 1.0806                 1.0689
 Frc consts  --     6.7793                 6.7946                 6.7370
 IR Inten    --    37.2149                10.7045               233.8288
 Raman Activ --   107.3477               211.2337               195.2993

                   115                    116                    117
                     A                      A                      A
 Frequencies --  3278.9130              3279.9433              3284.1143
 Red. masses --     1.0819                 1.0837                 1.0770
 Frc consts  --     6.8535                 6.8689                 6.8438
 IR Inten    --    34.1737                15.3916               488.2348
 Raman Activ --    46.0069                75.9423                26.0805

                   118                    119                    120
                     A                      A                      A
 Frequencies --  3286.4647              3290.8621              3296.9647
 Red. masses --     1.0812                 1.0862                 1.0869
 Frc consts  --     6.8804                 6.9306                 6.9609
 IR Inten    --   323.3400               142.0864                53.1590
 Raman Activ --    38.0045                43.5808                21.8263

                   121                    122                    123
                     A                      A                      A
 Frequencies --  3307.4629              3308.7630              3321.1502
 Red. masses --     1.1010                 1.0902                 1.1072
 Frc consts  --     7.0960                 7.0324                 7.1956
 IR Inten    --    13.5479                97.0591                48.4009
 Raman Activ --    32.3654                48.8818                44.1607

                   124                    125                    126
                     A                      A                      A
 Frequencies --  3358.9229              3370.1968              3374.0014
 Red. masses --     1.0655                 1.0670                 1.0681
 Frc consts  --     7.0826                 7.1407                 7.1642
 IR Inten    --    39.8784                48.2531                54.7131
 Raman Activ --    94.6201               172.1235               174.0310

                   127                    128                    129
                     A                      A                      A
 Frequencies --  3377.9899              3891.8270              3892.7292
 Red. masses --     1.0667                 1.0673                 1.0676
 Frc consts  --     7.1716                 9.5242                 9.5314
 IR Inten    --    59.6559                73.9505                85.0292
 Raman Activ --   141.7658               103.5131                92.5074

 - Thermochemistry -
 -------------------
 Temperature   298.150 Kelvin.  Pressure   1.00000 Atm.
 Atom     1 has atomic number  8 and mass  15.99491

 Molecular mass:   342.11621 amu.
 Principal axes and moments of inertia in atomic units:
                           1         2         3
     Eigenvalues --  4473.55815********************
           X            0.99997  -0.00773  -0.00023
           Y            0.00773   0.99997  -0.00059
           Z            0.00023   0.00059   1.00000
 This molecule is an asymmetric top.
 Rotational symmetry number  1.
 Warning -- assumption of classical behavior for rotation
           may cause significant error
 Rotational temperatures (Kelvin)      0.01936     0.00703     0.00528
 Rotational constants (GHZ):           0.40342     0.14651     0.10999
    7 imaginary frequencies ignored.
 Zero-point vibrational energy     974180.3 (Joules/Mol)
                                  232.83468 (Kcal/Mol)
 Warning -- explicit consideration of  32 degrees of freedom as
           vibrations may cause significant error
 Vibrational temperatures:     38.75    93.82   123.94   132.73   168.72
          (Kelvin)            226.98   248.75   268.41   306.45   327.35
                              369.81   379.16   416.95   428.25   444.16
                              448.08   457.90   488.11   510.18   546.64
                              576.00   593.17   606.60   638.52   690.75
                              707.97   727.25   753.87   808.62   835.98
                              867.09   892.32   925.67   950.70   971.03
                              990.46  1038.44  1083.86  1213.24  1223.80
                             1251.87  1260.36  1306.22  1350.60  1398.35
                             1404.28  1426.28  1435.64  1445.18  1468.03
                             1490.68  1505.59  1528.49  1539.79  1544.64
                             1550.70  1577.20  1583.36  1601.29  1603.50
                             1613.72  1634.23  1646.50  1655.99  1666.39
                             1686.71  1718.01  1724.97  1731.43  1744.43
                             1757.64  1770.65  1778.25  1799.58  1831.46
                             1844.27  1850.11  1863.23  1865.93  1886.52
                             1892.64  1899.71  1917.04  1921.42  1930.71
                             1946.13  1949.76  1962.94  1970.04  2000.50
                             2009.35  2018.97  2022.15  2085.91  2104.92
                             2118.94  2122.72  2133.91  2166.97  2182.18
                             4678.44  4684.16  4689.66  4693.40  4699.65
                             4700.24  4705.75  4717.62  4719.10  4725.10
                             4728.48  4734.81  4743.59  4758.70  4760.57
                             4778.39  4832.73  4848.96  4854.43  4860.17
                             5599.46  5600.76

 Zero-point correction=                           0.371046 (Hartree/Particle)
 Thermal correction to Energy=                    0.389475
 Thermal correction to Enthalpy=                  0.390419
 Thermal correction to Gibbs Free Energy=         0.325071
 Sum of electronic and zero-point Energies=          -1297.600020
 Sum of electronic and thermal Energies=             -1297.581591
 Sum of electronic and thermal Enthalpies=           -1297.580647
 Sum of electronic and thermal Free Energies=        -1297.645995

                     E (Thermal)             CV                S
                      KCal/Mol        Cal/Mol-Kelvin    Cal/Mol-Kelvin
 Total                  244.399             76.032            137.536
 Electronic               0.000              0.000              0.000
 Translational            0.889              2.981             43.384
 Rotational               0.889              2.981             35.157
 Vibrational            242.622             70.070             58.995
 Vibration     1          0.593              1.984              6.043
 Vibration     2          0.597              1.971              4.293
 Vibration     3          0.601              1.959              3.746
 Vibration     4          0.602              1.955              3.612
 Vibration     5          0.608              1.935              3.145
 Vibration     6          0.621              1.894              2.576
 Vibration     7          0.626              1.876              2.404
 Vibration     8          0.632              1.858              2.262
 Vibration     9          0.644              1.821              2.018
 Vibration    10          0.651              1.799              1.898
 Vibration    11          0.667              1.751              1.682
 Vibration    12          0.670              1.740              1.638
 Vibration    13          0.686              1.693              1.475
 Vibration    14          0.691              1.678              1.430
 Vibration    15          0.698              1.657              1.369
 Vibration    16          0.700              1.652              1.355
 Vibration    17          0.705              1.639              1.319
 Vibration    18          0.719              1.597              1.216
 Vibration    19          0.730              1.566              1.146
 Vibration    20          0.750              1.513              1.039
 Vibration    21          0.766              1.469              0.961
 Vibration    22          0.776              1.444              0.919
 Vibration    23          0.784              1.423              0.887
 Vibration    24          0.803              1.375              0.815
 Vibration    25          0.836              1.294              0.710
 Vibration    26          0.848              1.268              0.678
 Vibration    27          0.861              1.238              0.645
 Vibration    28          0.879              1.197              0.601
 Vibration    29          0.918              1.113              0.520
 Vibration    30          0.938              1.072              0.483
 Vibration    31          0.961              1.026              0.445
 Vibration    32          0.980              0.989              0.416

 Normal termination of Gaussian 09 at Mon Mar 21 22:39:49 2016.
