 Gaussian 09, Revision B.01,
 Gaussian 09:  EM64L-G09RevB.01 12-Aug-2010

 --------------------------------------------------
 # freq=raman b3lyp/6-31+g(2df,p) geom=connectivity
 --------------------------------------------------

 ------------
 310 5000.com
 ------------
 Symbolic Z-matrix:
 Charge =  0 Multiplicity = 1

                         Standard orientation:
 ---------------------------------------------------------------------
 Center     Atomic      Atomic             Coordinates (Angstroms)
 Number     Number       Type             X           Y           Z
 ---------------------------------------------------------------------
      1          8           0        5.029502   -0.482819   -0.275921
      2          6           0        3.718834   -0.133863    0.191782
      3          6           0        3.319669    1.229972   -0.348689
      4          8           0        4.329813    2.205475   -0.049562
      5          1           0        5.145085    1.898615   -0.539871
      6          6           0        1.927407    1.605129    0.130929
      7          8           0        1.344910    2.834156   -0.327694
      8          1           0        0.437640    2.914432    0.086251
      9          6           0        3.020586   -2.571750    0.176761
     10          8           0        4.220815   -3.263926   -0.193222
     11          1           0        3.996481   -4.237459   -0.235459
     12          6           0        2.684449   -1.153914   -0.253867
     13          8           0        1.425530   -0.755940    0.307773
     14          6           0        0.898145    0.512396   -0.107553
     15          8           0       -0.256049    0.542753    0.743947
     16          6           0       -1.540908    0.234343    0.185621
     17          6           0       -2.057625   -1.175665    0.423055
     18          8           0       -1.068818   -2.061017   -0.122044
     19          1           0       -0.173228   -1.637028    0.012159
     20          6           0       -3.394513   -1.601598   -0.162476
     21          8           0       -4.012860   -2.799897    0.329828
     22          1           0       -4.852942   -2.897052   -0.203723
     23          6           0       -2.377524    2.613238   -0.160509
     24          8           0       -1.219768    3.292449    0.349896
     25          1           0       -1.158271    4.288850    0.300677
     26          6           0       -2.656321    1.239694    0.426619
     27          8           0       -3.820661    0.849129   -0.313997
     28          6           0       -4.338000   -0.433194    0.070219
     29          8           0       -5.420394   -0.529215   -0.866954
     30          1           0        5.587336   -0.706567    0.472650
     31          1           0       -6.242686   -0.672050   -0.392576
     32          1           0       -4.701112   -0.418810    1.076619
     33          1           0       -3.265214   -1.714433   -1.218625
     34          1           0       -2.098583   -1.334887    1.480349
     35          1           0       -1.375349    0.277369   -0.870617
     36          1           0       -2.881483    1.313760    1.470034
     37          1           0       -3.232026    3.231494    0.019731
     38          1           0       -2.259878    2.504889   -1.218488
     39          1           0        0.608045    0.480360   -1.136978
     40          1           0        2.009854    1.703727    1.193181
     41          1           0        3.271759    1.145150   -1.414245
     42          1           0        3.730328   -0.094604    1.261000
     43          1           0        2.610581   -1.126433   -1.320960
     44          1           0        2.208694   -3.184518   -0.155272
     45          1           0        2.993616   -2.572705    1.246421
 ---------------------------------------------------------------------

 SCF Done:  E(RB3LYP) =  -1298.00251454     A.U. after   13 cycles

 The electronic state is 1-A.
 Alpha  occ. eigenvalues --  -19.18476 -19.18294 -19.18291 -19.18134 -19.17623
 Alpha  occ. eigenvalues --  -19.16994 -19.16492 -19.16341 -19.15366 -19.13641
 Alpha  occ. eigenvalues --  -19.13583 -10.31037 -10.30275 -10.26105 -10.25904
 Alpha  occ. eigenvalues --  -10.25457 -10.25370 -10.24992 -10.24724 -10.24651
 Alpha  occ. eigenvalues --  -10.24605 -10.24531 -10.24022  -1.10303  -1.09344
 Alpha  occ. eigenvalues --   -1.05085  -1.04756  -1.03778  -1.03621  -1.02716
 Alpha  occ. eigenvalues --   -1.02453  -1.01835  -1.00848  -1.00309  -0.82014
 Alpha  occ. eigenvalues --   -0.80334  -0.79571  -0.78507  -0.72194  -0.70008
 Alpha  occ. eigenvalues --   -0.67271  -0.65146  -0.63605  -0.62543  -0.61327
 Alpha  occ. eigenvalues --   -0.60173  -0.56579  -0.55742  -0.55106  -0.54888
 Alpha  occ. eigenvalues --   -0.53747  -0.53491  -0.52741  -0.52146  -0.51407
 Alpha  occ. eigenvalues --   -0.50780  -0.50156  -0.49303  -0.48552  -0.46399
 Alpha  occ. eigenvalues --   -0.46309  -0.45249  -0.44296  -0.43775  -0.43155
 Alpha  occ. eigenvalues --   -0.42641  -0.42076  -0.41695  -0.40016  -0.39363
 Alpha  occ. eigenvalues --   -0.38813  -0.38150  -0.37038  -0.35885  -0.35614
 Alpha  occ. eigenvalues --   -0.35370  -0.35016  -0.34096  -0.33813  -0.33371
 Alpha  occ. eigenvalues --   -0.32594  -0.31436  -0.31287  -0.30734  -0.30108
 Alpha  occ. eigenvalues --   -0.29322  -0.28896  -0.28720  -0.27488  -0.26846
 Alpha  occ. eigenvalues --   -0.26283
 Alpha virt. eigenvalues --   -0.01850  -0.01715  -0.01634  -0.00054   0.00289
 Alpha virt. eigenvalues --    0.00942   0.02028   0.02124   0.02825   0.03260
 Alpha virt. eigenvalues --    0.03681   0.04092   0.04403   0.05288   0.05589

 Mulliken atomic charges:
              1
     1  O   -0.456357
     2  C   -0.036451
     3  C   -0.052610
     4  O   -0.434357
     5  H    0.352294
     6  C   -0.266527
     7  O   -0.488856
     8  H    0.431882
     9  C   -0.408244
    10  O   -0.443232
    11  H    0.348518
    12  C    0.096443
    13  O   -0.053597
    14  C    0.142110
    15  O   -0.014392
    16  C    0.175608
    17  C    0.129076
    18  O   -0.495222
    19  H    0.409973
    20  C   -0.039333
    21  O   -0.448411
    22  H    0.343926
    23  C   -0.289975
    24  O   -0.528212
    25  H    0.386072
    26  C   -0.465853
    27  O    0.005408
    28  C   -0.036644
    29  O   -0.476915
    30  H    0.353949
    31  H    0.343397
    32  H    0.136042
    33  H    0.149664
    34  H    0.127514
    35  H    0.115239
    36  H    0.128943
    37  H    0.153325
    38  H    0.166376
    39  H    0.138185
    40  H    0.135194
    41  H    0.123764
    42  H    0.128880
    43  H    0.116812
    44  H    0.149140
    45  H    0.147454
 Sum of Mulliken atomic charges =   0.00000

 Dipole moment (field-independent basis, Debye):
    X=             -3.0116    Y=              0.0615    Z=              1.3068  Tot=              3.2835
 Quadrupole moment (field-independent basis, Debye-Ang):
   XX=           -120.5229   YY=           -136.2112   ZZ=           -139.2585
   XY=            -14.2440   XZ=             -1.6882   YZ=              1.7657

  Exact polarizability: 235.925   2.495 197.939   0.176  -0.080 144.051
 Approx polarizability: 276.810   2.791 256.749  -0.015   0.889 240.517

 ******    7 imaginary frequencies (negative Signs) ******

                     1                      2                      3
                     A                      A                      A
 Frequencies --  -323.8105              -229.4057              -220.9208
 Red. masses --     1.6383                 1.9272                 1.1413
 Frc consts  --     0.1012                 0.0598                 0.0328
 IR Inten    --     5.5956                 7.4011                93.5829
 Raman Activ --     0.0663                 0.0414                 0.7517

                     4                      5                      6
                     A                      A                      A
 Frequencies --  -205.5181               -81.6988               -57.4134
 Red. masses --     1.2251                 6.4062                 6.7779
 Frc consts  --     0.0305                 0.0252                 0.0132
 IR Inten    --   109.7672                 1.5394                 0.3779
 Raman Activ --     0.8575                 0.0149                 0.0479

                     7                      8                      9
                     A                      A                      A
 Frequencies --   -15.2781                46.8860                58.8011
 Red. masses --     6.4428                 6.3538                 6.2414
 Frc consts  --     0.0009                 0.0082                 0.0127
 IR Inten    --     1.5315                 1.0109                 2.2191
 Raman Activ --     0.0200                 0.0239                 0.1235

                    10                     11                     12
                     A                      A                      A
 Frequencies --    78.2601                96.1305               102.4179
 Red. masses --     6.1298                 6.0901                 6.2475
 Frc consts  --     0.0221                 0.0332                 0.0386
 IR Inten    --     0.7016                 0.7861                 2.6321
 Raman Activ --     0.1916                 0.2284                 0.0324

                    13                     14                     15
                     A                      A                      A
 Frequencies --   146.3023               166.4944               184.5654
 Red. masses --     6.1107                 6.0350                 8.0640
 Frc consts  --     0.0771                 0.0986                 0.1618
 IR Inten    --     6.6859                 3.3273                 0.3798
 Raman Activ --     0.3933                 0.4135                 0.8818

                    16                     17                     18
                     A                      A                      A
 Frequencies --   203.2949               232.3128               265.6309
 Red. masses --     6.9095                 5.9750                 4.1495
 Frc consts  --     0.1682                 0.1900                 0.1725
 IR Inten    --     0.5891                 1.6113                12.4635
 Raman Activ --     2.6357                 0.4725                 0.1767

                    19                     20                     21
                     A                      A                      A
 Frequencies --   269.3556               291.9429               297.8228
 Red. masses --     4.8896                 5.3472                 5.5963
 Frc consts  --     0.2090                 0.2685                 0.2925
 IR Inten    --     6.1663                 1.5578                 6.1933
 Raman Activ --     0.3072                 0.0714                 0.8512

                    22                     23                     24
                     A                      A                      A
 Frequencies --   304.3945               313.1585               317.9606
 Red. masses --     5.2950                 5.3591                 6.5518
 Frc consts  --     0.2891                 0.3096                 0.3903
 IR Inten    --     6.8999                 2.7054                 1.9184
 Raman Activ --     0.3283                 2.6139                 2.0230

                    25                     26                     27
                     A                      A                      A
 Frequencies --   338.5583               363.0878               372.6770
 Red. masses --     6.7118                 4.9968                 7.7774
 Frc consts  --     0.4533                 0.3881                 0.6364
 IR Inten    --     8.9393                 4.0390                 4.0853
 Raman Activ --     5.0491                 0.2505                 3.1169

                    28                     29                     30
                     A                      A                      A
 Frequencies --   401.4583               409.5201               431.9058
 Red. masses --     3.5225                 7.0025                 4.7295
 Frc consts  --     0.3345                 0.6919                 0.5198
 IR Inten    --    25.9748                 4.2062                 0.4472
 Raman Activ --     1.5682                 3.7125                 3.7984

                    31                     32                     33
                     A                      A                      A
 Frequencies --   448.1848               471.9239               486.6513
 Red. masses --     4.7909                 4.6977                 4.0980
 Frc consts  --     0.5670                 0.6164                 0.5718
 IR Inten    --     2.4937                 1.8636                13.9586
 Raman Activ --     1.6905                 2.8366                 1.1587

                    34                     35                     36
                     A                      A                      A
 Frequencies --   515.0447               518.3933               565.2213
 Red. masses --     3.9235                 3.2123                 3.4257
 Frc consts  --     0.6132                 0.5086                 0.6448
 IR Inten    --    17.1320                 3.6891                20.3816
 Raman Activ --     0.9392                 6.5008                 1.2794

                    37                     38                     39
                     A                      A                      A
 Frequencies --   568.9588               594.6602               614.5909
 Red. masses --     2.6556                 6.0031                 4.3438
 Frc consts  --     0.5065                 1.2507                 0.9667
 IR Inten    --    48.3395                 6.7416                 5.9038
 Raman Activ --     0.3864                 0.7303                 0.4199

                    40                     41                     42
                     A                      A                      A
 Frequencies --   624.1030               640.7009               690.5451
 Red. masses --     1.2746                 3.3960                 2.5715
 Frc consts  --     0.2925                 0.8213                 0.7225
 IR Inten    --    72.0515                59.9008                42.2445
 Raman Activ --     1.2866                 2.5020                 0.7061

                    43                     44                     45
                     A                      A                      A
 Frequencies --   697.1420               726.8727               741.4824
 Red. masses --     1.3806                 1.1098                 1.0785
 Frc consts  --     0.3953                 0.3455                 0.3494
 IR Inten    --    67.8103               112.9205                93.1780
 Raman Activ --     2.2976                 1.5666                 1.5831

                    46                     47                     48
                     A                      A                      A
 Frequencies --   824.0205               837.8258               846.4935
 Red. masses --     1.1264                 1.6990                 1.1253
 Frc consts  --     0.4506                 0.7027                 0.4751
 IR Inten    --    74.1945                 7.9484                52.6491
 Raman Activ --     1.7874                 0.4504                 0.5950

                    49                     50                     51
                     A                      A                      A
 Frequencies --   867.4343               906.3520               953.5674
 Red. masses --     1.5514                 6.5837                 5.1467
 Frc consts  --     0.6878                 3.1865                 2.7573
 IR Inten    --     3.4642               154.3332                59.4506
 Raman Activ --     0.2665                 2.5526                 0.3440

                    52                     53                     54
                     A                      A                      A
 Frequencies --   974.7110               980.0661               983.6775
 Red. masses --     6.6088                 7.8129                 4.6876
 Frc consts  --     3.6993                 4.4215                 2.6724
 IR Inten    --     7.5343                32.2015               180.4584
 Raman Activ --     3.1204                 2.4835                 1.0319

                    55                     56                     57
                     A                      A                      A
 Frequencies --   990.6325              1011.7170              1022.3552
 Red. masses --     5.0316                 6.5335                 5.1893
 Frc consts  --     2.9092                 3.9401                 3.1957
 IR Inten    --   495.2433                18.6301               115.5333
 Raman Activ --     2.8357                 2.3300                 4.6606

                    58                     59                     60
                     A                      A                      A
 Frequencies --  1044.5958              1048.2013              1067.7876
 Red. masses --     7.6005                 4.0151                 3.7489
 Frc consts  --     4.8864                 2.5992                 2.5184
 IR Inten    --    49.8682               244.4216                63.4041
 Raman Activ --     6.1976                 7.2456                 6.2820

                    61                     62                     63
                     A                      A                      A
 Frequencies --  1069.1195              1079.4609              1080.4252
 Red. masses --     4.5037                 5.2076                 4.0169
 Frc consts  --     3.0330                 3.5752                 2.7627
 IR Inten    --   111.2430                 2.9363                55.0260
 Raman Activ --     2.6324                 7.1855                11.6190

                    64                     65                     66
                     A                      A                      A
 Frequencies --  1099.9716              1103.9378              1108.4466
 Red. masses --     3.1274                 2.3198                 3.0462
 Frc consts  --     2.2294                 1.6657                 2.2052
 IR Inten    --    67.5231                24.9315                 8.3901
 Raman Activ --     7.8879                 2.0969                 7.7597

                    67                     68                     69
                     A                      A                      A
 Frequencies --  1116.7113              1125.5764              1133.9286
 Red. masses --     3.1138                 2.9773                 2.4777
 Frc consts  --     2.2878                 2.2224                 1.8770
 IR Inten    --    64.4018                52.6260                50.8080
 Raman Activ --     5.9901                 2.9315                 2.5386

                    70                     71                     72
                     A                      A                      A
 Frequencies --  1139.0390              1155.9072              1162.4714
 Red. masses --     2.7140                 1.8178                 1.6556
 Frc consts  --     2.0746                 1.4310                 1.3182
 IR Inten    --    16.0617                11.8165                 8.2515
 Raman Activ --     5.3104                 3.0688                 1.1481

                    73                     74                     75
                     A                      A                      A
 Frequencies --  1164.1860              1170.9676              1180.6775
 Red. masses --     1.7963                 1.9390                 1.8035
 Frc consts  --     1.4344                 1.5665                 1.4812
 IR Inten    --     3.7397                 2.0778                24.7347
 Raman Activ --     8.0326                 2.3663                 2.6666

                    76                     77                     78
                     A                      A                      A
 Frequencies --  1190.5646              1210.9630              1218.8333
 Red. masses --     1.3280                 1.3204                 1.2969
 Frc consts  --     1.1090                 1.1408                 1.1351
 IR Inten    --    35.6241                14.7984                 1.0964
 Raman Activ --     3.9246                 1.8513                 1.8530

                    79                     80                     81
                     A                      A                      A
 Frequencies --  1225.7077              1236.6934              1253.7640
 Red. masses --     1.1969                 1.2971                 1.3074
 Frc consts  --     1.0595                 1.1688                 1.2108
 IR Inten    --     1.5094                 3.4243                16.1551
 Raman Activ --     1.9809                 0.8564                 1.0352

                    82                     83                     84
                     A                      A                      A
 Frequencies --  1260.5503              1274.5270              1280.3775
 Red. masses --     1.3593                 1.2877                 1.2564
 Frc consts  --     1.2726                 1.2324                 1.2135
 IR Inten    --    43.5236                10.4810                10.6284
 Raman Activ --     1.5233                 1.1074                 1.0461

                    85                     86                     87
                     A                      A                      A
 Frequencies --  1285.0258              1293.0505              1296.8492
 Red. masses --     1.3099                 1.3447                 1.3331
 Frc consts  --     1.2744                 1.3247                 1.3209
 IR Inten    --    47.0332                33.1226                15.2901
 Raman Activ --     5.8410                 3.0848                 1.6052

                    88                     89                     90
                     A                      A                      A
 Frequencies --  1310.2396              1314.6938              1324.2860
 Red. masses --     1.2133                 1.2625                 1.3082
 Frc consts  --     1.2272                 1.2856                 1.3517
 IR Inten    --     0.5807                 0.6852                21.4243
 Raman Activ --     8.2076                 4.8809                 1.4950

                    91                     92                     93
                     A                      A                      A
 Frequencies --  1332.6161              1339.5505              1356.2753
 Red. masses --     1.2915                 1.3442                 1.1622
 Frc consts  --     1.3513                 1.4211                 1.2596
 IR Inten    --    19.5591                40.7180                22.9495
 Raman Activ --    10.0694                 4.8758                 4.4047

                    94                     95                     96
                     A                      A                      A
 Frequencies --  1358.2058              1359.5932              1366.7112
 Red. masses --     1.5578                 1.1830                 1.5076
 Frc consts  --     1.6932                 1.2884                 1.6591
 IR Inten    --    13.3176                17.8368                 6.8295
 Raman Activ --     6.7593                 3.4607                 5.8082

                    97                     98                     99
                     A                      A                      A
 Frequencies --  1376.2600              1393.4323              1407.4806
 Red. masses --     1.4637                 1.4443                 1.5170
 Frc consts  --     1.6334                 1.6522                 1.7706
 IR Inten    --    11.9553                 8.4758                14.2066
 Raman Activ --     5.0109                 2.0036                 0.4264

                   100                    101                    102
                     A                      A                      A
 Frequencies --  1416.2382              1443.9446              1456.6434
 Red. masses --     1.2259                 1.3955                 1.1135
 Frc consts  --     1.4487                 1.7143                 1.3920
 IR Inten    --     3.6535                34.3966                16.5476
 Raman Activ --     9.6169                 0.9823                 3.3933

                   103                    104                    105
                     A                      A                      A
 Frequencies --  1458.9861              1466.9373              1472.3366
 Red. masses --     1.2828                 1.0825                 1.3325
 Frc consts  --     1.6088                 1.3724                 1.7019
 IR Inten    --    25.4485                 4.3550                22.8229
 Raman Activ --     2.6877                 4.2263                 1.0002

                   106                    107                    108
                     A                      A                      A
 Frequencies --  1513.8179              1518.8651              3225.8479
 Red. masses --     1.2443                 1.2156                 1.0698
 Frc consts  --     1.6801                 1.6522                 6.5592
 IR Inten    --    36.3440                60.4859               738.4187
 Raman Activ --     2.6775                 2.2159               191.7698

                   109                    110                    111
                     A                      A                      A
 Frequencies --  3251.1116              3255.2532              3260.6937
 Red. masses --     1.0583                 1.0794                 1.0798
 Frc consts  --     6.5907                 6.7392                 6.7641
 IR Inten    --    20.8520                31.6326                39.9551
 Raman Activ --    65.8138                72.4043               112.8772

                   112                    113                    114
                     A                      A                      A
 Frequencies --  3264.2220              3265.6352              3270.0880
 Red. masses --     1.0720                 1.0629                 1.0823
 Frc consts  --     6.7300                 6.6788                 6.8186
 IR Inten    --   267.8874                75.7585                 6.6583
 Raman Activ --    95.8582               116.4370               136.2586

                   115                    116                    117
                     A                      A                      A
 Frequencies --  3271.5830              3277.3933              3282.2846
 Red. masses --     1.0825                 1.0765                 1.0851
 Frc consts  --     6.8263                 6.8125                 6.8874
 IR Inten    --    15.1486               340.6988                32.9757
 Raman Activ --     2.5764                67.1841                33.3216

                   118                    119                    120
                     A                      A                      A
 Frequencies --  3282.9325              3287.1391              3293.8694
 Red. masses --     1.0844                 1.0852                 1.0894
 Frc consts  --     6.8858                 6.9084                 6.9636
 IR Inten    --    25.5574                59.9834                40.7445
 Raman Activ --   148.4176                59.2182                10.7727

                   121                    122                    123
                     A                      A                      A
 Frequencies --  3298.2558              3303.9617              3323.3591
 Red. masses --     1.0866                 1.0996                 1.1071
 Frc consts  --     6.9645                 7.0725                 7.2045
 IR Inten    --    64.3385                98.5947                40.9163
 Raman Activ --     9.9704                25.4500                46.2417

                   124                    125                    126
                     A                      A                      A
 Frequencies --  3358.6264              3359.1841              3365.9855
 Red. masses --     1.0655                 1.0686                 1.0687
 Frc consts  --     7.0818                 7.1047                 7.1338
 IR Inten    --    45.5060                46.4740                83.8983
 Raman Activ --   103.6836               150.8548               159.5002

                   127                    128                    129
                     A                      A                      A
 Frequencies --  3367.5114              3876.2742              3876.4630
 Red. masses --     1.0654                 1.0674                 1.0676
 Frc consts  --     7.1182                 9.4495                 9.4517
 IR Inten    --    50.8679                89.4312                54.0915
 Raman Activ --   102.8447                83.3669               124.9546

 - Thermochemistry -
 -------------------
 Temperature   298.150 Kelvin.  Pressure   1.00000 Atm.
 Atom     1 has atomic number  8 and mass  15.99491

 Molecular mass:   342.11621 amu.
 Principal axes and moments of inertia in atomic units:
                           1         2         3
     Eigenvalues --  4437.79343********************
           X            0.99997  -0.00731  -0.00022
           Y            0.00731   0.99997  -0.00097
           Z            0.00022   0.00096   1.00000
 This molecule is an asymmetric top.
 Rotational symmetry number  1.
 Warning -- assumption of classical behavior for rotation
           may cause significant error
 Rotational temperatures (Kelvin)      0.01952     0.00691     0.00523
 Rotational constants (GHZ):           0.40668     0.14391     0.10905
    7 imaginary frequencies ignored.
 Zero-point vibrational energy     971842.5 (Joules/Mol)
                                  232.27592 (Kcal/Mol)
 Warning -- explicit consideration of  32 degrees of freedom as
           vibrations may cause significant error
 Vibrational temperatures:     67.46    84.60   112.60   138.31   147.36
          (Kelvin)            210.50   239.55   265.55   292.50   334.25
                              382.18   387.54   420.04   428.50   437.96
                              450.56   457.47   487.11   522.40   536.20
                              577.61   589.21   621.42   644.84   678.99
                              700.18   741.03   745.85   813.23   818.60
                              855.58   884.26   897.94   921.82   993.54
                             1003.03  1045.81  1066.83  1185.58  1205.44
                             1217.91  1248.04  1304.04  1371.97  1402.39
                             1410.09  1415.29  1425.30  1455.63  1470.94
                             1502.94  1508.13  1536.31  1538.22  1553.10
                             1554.49  1582.61  1588.32  1594.81  1606.70
                             1619.45  1631.47  1638.82  1663.09  1672.54
                             1675.00  1684.76  1698.73  1712.95  1742.30
                             1753.63  1763.52  1779.32  1803.88  1813.65
                             1833.76  1842.18  1848.86  1860.41  1865.87
                             1885.14  1891.55  1905.35  1917.34  1927.31
                             1951.38  1954.15  1956.15  1966.39  1980.13
                             2004.84  2025.05  2037.65  2077.51  2095.78
                             2099.15  2110.59  2118.36  2178.04  2185.31
                             4641.27  4677.62  4683.58  4691.41  4696.48
                             4698.51  4704.92  4707.07  4715.43  4722.47
                             4723.40  4729.45  4739.14  4745.45  4753.66
                             4781.57  4832.31  4833.11  4842.90  4845.09
                             5577.09  5577.36

 Zero-point correction=                           0.370155 (Hartree/Particle)
 Thermal correction to Energy=                    0.388651
 Thermal correction to Enthalpy=                  0.389595
 Thermal correction to Gibbs Free Energy=         0.324348
 Sum of electronic and zero-point Energies=          -1297.632359
 Sum of electronic and thermal Energies=             -1297.613864
 Sum of electronic and thermal Enthalpies=           -1297.612920
 Sum of electronic and thermal Free Energies=        -1297.678167

                     E (Thermal)             CV                S
                      KCal/Mol        Cal/Mol-Kelvin    Cal/Mol-Kelvin
 Total                  243.882             76.279            137.324
 Electronic               0.000              0.000              0.000
 Translational            0.889              2.981             43.384
 Rotational               0.889              2.981             35.175
 Vibrational            242.105             70.317             58.764
 Vibration     1          0.595              1.979              4.945
 Vibration     2          0.596              1.974              4.497
 Vibration     3          0.600              1.964              3.934
 Vibration     4          0.603              1.952              3.531
 Vibration     5          0.604              1.947              3.408
 Vibration     6          0.617              1.907              2.720
 Vibration     7          0.624              1.884              2.475
 Vibration     8          0.631              1.861              2.282
 Vibration     9          0.639              1.835              2.103
 Vibration    10          0.653              1.792              1.861
 Vibration    11          0.671              1.736              1.624
 Vibration    12          0.674              1.730              1.600
 Vibration    13          0.687              1.689              1.463
 Vibration    14          0.691              1.678              1.429
 Vibration    15          0.695              1.665              1.393
 Vibration    16          0.701              1.649              1.346
 Vibration    17          0.704              1.639              1.321
 Vibration    18          0.719              1.598              1.219
 Vibration    19          0.737              1.548              1.109
 Vibration    20          0.744              1.528              1.069
 Vibration    21          0.767              1.467              0.957
 Vibration    22          0.774              1.450              0.928
 Vibration    23          0.793              1.401              0.852
 Vibration    24          0.807              1.365              0.801
 Vibration    25          0.829              1.312              0.732
 Vibration    26          0.843              1.280              0.692
 Vibration    27          0.870              1.217              0.622
 Vibration    28          0.873              1.209              0.614
 Vibration    29          0.921              1.107              0.514
 Vibration    30          0.925              1.098              0.506
 Vibration    31          0.952              1.043              0.459
 Vibration    32          0.974              1.001              0.425

 Normal termination of Gaussian 09 at Fri Feb 12 10:18:47 2016.
