 Gaussian 09, Revision B.01,
 Gaussian 09:  EM64L-G09RevB.01 12-Aug-2010

 ------------------------------------------------
 # freq=raman b3lyp/6-31+g(d,p) geom=connectivity
 ------------------------------------------------

 ------------
 310 8000.com
 ------------
 Symbolic Z-matrix:
 Charge =  0 Multiplicity = 1

                         Standard orientation:
 ---------------------------------------------------------------------
 Center     Atomic      Atomic             Coordinates (Angstroms)
 Number     Number       Type             X           Y           Z
 ---------------------------------------------------------------------
      1          8           0        4.946208   -0.560427   -0.213719
      2          6           0        3.648207   -0.219522    0.293321
      3          6           0        3.289846    1.205398   -0.095944
      4          8           0        4.343488    2.145181    0.164357
      5          1           0        5.195006    1.640348    0.306869
      6          6           0        1.883037    1.594182    0.329521
      7          8           0        1.495691    2.800477   -0.343405
      8          1           0        0.628046    3.163476   -0.003025
      9          6           0        2.824076   -2.628022   -0.095129
     10          8           0        3.956271   -3.237503   -0.733913
     11          1           0        3.911465   -4.227058   -0.597478
     12          6           0        2.583906   -1.139710   -0.283400
     13          8           0        1.394457   -0.865187    0.470619
     14          6           0        0.913600    0.441779    0.124432
     15          8           0       -0.351950    0.472299    0.800216
     16          6           0       -1.481456    0.188968   -0.039299
     17          6           0       -2.045819   -1.156403    0.385262
     18          8           0       -1.053281   -2.136903    0.046900
     19          1           0       -0.226295   -1.788386    0.489351
     20          6           0       -3.418930   -1.541472   -0.140649
     21          8           0       -4.038787   -2.586985    0.621282
     22          1           0       -4.768954   -2.962969    0.051111
     23          6           0       -2.167425    2.660010   -0.435597
     24          8           0       -1.013879    3.364319    0.048062
     25          1           0       -1.184240    4.349172    0.062760
     26          6           0       -2.493810    1.304014    0.168363
     27          8           0       -3.723134    0.864444   -0.426548
     28          6           0       -4.302563   -0.331162    0.115080
     29          8           0       -5.464715   -0.458153   -0.717098
     30          1           0       -6.240225   -0.587292   -0.166184
     31          1           0        5.535949   -0.751746    0.519222
     32          1           0        1.949119   -3.139459   -0.438323
     33          1           0        2.914519   -2.807308    0.955859
     34          1           0        2.423738   -0.918312   -1.317919
     35          1           0        3.650755   -0.305468    1.359860
     36          1           0        3.233751    1.176175   -1.164073
     37          1           0        1.910835    1.806457    1.377885
     38          1           0        0.697847    0.420350   -0.923371
     39          1           0       -3.017494    3.292531   -0.286598
     40          1           0       -2.042892    2.522239   -1.489357
     41          1           0       -2.649083    1.429578    1.219564
     42          1           0       -1.177710    0.153777   -1.064677
     43          1           0       -2.118867   -1.139302    1.452629
     44          1           0       -3.385575   -1.783756   -1.182324
     45          1           0       -4.558652   -0.223887    1.148429
 ---------------------------------------------------------------------

 SCF Done:  E(RB3LYP) =  -1297.93780111     A.U. after   13 cycles

 The electronic state is 1-A.
 Alpha  occ. eigenvalues --  -19.20163 -19.19426 -19.18838 -19.18210 -19.17982
 Alpha  occ. eigenvalues --  -19.17613 -19.17600 -19.16507 -19.15681 -19.14653
 Alpha  occ. eigenvalues --  -19.14161 -10.30759 -10.30677 -10.26152 -10.26070
 Alpha  occ. eigenvalues --  -10.25898 -10.25753 -10.25514 -10.25296 -10.25016
 Alpha  occ. eigenvalues --  -10.24531 -10.24257 -10.24213  -1.10398  -1.08897
 Alpha  occ. eigenvalues --   -1.06002  -1.05367  -1.04177  -1.03800  -1.02383
 Alpha  occ. eigenvalues --   -1.02114  -1.01563  -1.00926  -0.99937  -0.81701
 Alpha  occ. eigenvalues --   -0.80466  -0.79585  -0.78121  -0.72233  -0.70173
 Alpha  occ. eigenvalues --   -0.67106  -0.64983  -0.63608  -0.62384  -0.61444
 Alpha  occ. eigenvalues --   -0.60445  -0.56566  -0.55910  -0.55270  -0.54531
 Alpha  occ. eigenvalues --   -0.53710  -0.53238  -0.52952  -0.52202  -0.51077
 Alpha  occ. eigenvalues --   -0.50471  -0.50128  -0.49506  -0.48961  -0.46966
 Alpha  occ. eigenvalues --   -0.46389  -0.45168  -0.44151  -0.43573  -0.43222
 Alpha  occ. eigenvalues --   -0.43031  -0.41898  -0.41043  -0.39684  -0.39030
 Alpha  occ. eigenvalues --   -0.38730  -0.38054  -0.37577  -0.36158  -0.35506
 Alpha  occ. eigenvalues --   -0.35291  -0.35039  -0.34328  -0.33852  -0.33578
 Alpha  occ. eigenvalues --   -0.32470  -0.31757  -0.31267  -0.31123  -0.30048
 Alpha  occ. eigenvalues --   -0.29031  -0.28154  -0.27783  -0.27204  -0.26580
 Alpha  occ. eigenvalues --   -0.26412
 Alpha virt. eigenvalues --   -0.02397  -0.02041  -0.01629  -0.00259   0.00142
 Alpha virt. eigenvalues --    0.01023   0.01950   0.02456   0.02677   0.03716
 Alpha virt. eigenvalues --    0.03853   0.04272   0.05096   0.05196   0.05826

 Mulliken atomic charges:
              1
     1  O   -0.518942
     2  C   -0.119019
     3  C   -0.113834
     4  O   -0.500433
     5  H    0.348889
     6  C    0.129278
     7  O   -0.537192
     8  H    0.440636
     9  C    0.089373
    10  O   -0.523104
    11  H    0.353058
    12  C    0.119368
    13  O   -0.419515
    14  C    0.037247
    15  O   -0.314611
    16  C    0.261740
    17  C   -0.138854
    18  O   -0.504083
    19  H    0.400205
    20  C    0.073905
    21  O   -0.512783
    22  H    0.356243
    23  C   -0.122201
    24  O   -0.645389
    25  H    0.399033
    26  C   -0.040365
    27  O   -0.313869
    28  C    0.239375
    29  O   -0.563177
    30  H    0.360742
    31  H    0.361869
    32  H    0.147588
    33  H    0.129441
    34  H    0.134562
    35  H    0.139532
    36  H    0.133668
    37  H    0.137618
    38  H    0.098148
    39  H    0.140082
    40  H    0.152311
    41  H    0.131554
    42  H    0.129649
    43  H    0.146364
    44  H    0.157317
    45  H    0.138574
 Sum of Mulliken atomic charges =   0.00000

 Dipole moment (field-independent basis, Debye):
    X=             -3.1796    Y=             -0.2488    Z=              2.6900  Tot=              4.1723
 Quadrupole moment (field-independent basis, Debye-Ang):
   XX=           -122.7440   YY=           -130.5106   ZZ=           -141.5239
   XY=            -17.5031   XZ=              7.3357   YZ=              2.6117

  Exact polarizability: 226.816   2.745 192.799   1.522  -0.030 141.392
 Approx polarizability: 262.948   2.941 247.805   1.086  -0.156 232.504

 ******    7 imaginary frequencies (negative Signs) ******

                     1                      2                      3
                     A                      A                      A
 Frequencies --  -323.3645              -308.3407              -267.4952
 Red. masses --     1.1518                 1.2709                 1.6492
 Frc consts  --     0.0710                 0.0712                 0.0695
 IR Inten    --   122.9596               106.0504                14.2130
 Raman Activ --     1.3124                 0.7654                 0.2638

                     4                      5                      6
                     A                      A                      A
 Frequencies --  -256.5665               -77.9796               -62.5675
 Red. masses --     1.7854                 6.8156                 6.2200
 Frc consts  --     0.0692                 0.0244                 0.0143
 IR Inten    --     1.5811                 1.0340                 0.3841
 Raman Activ --     0.0195                 0.0536                 0.0191

                     7                      8                      9
                     A                      A                      A
 Frequencies --   -52.6920                54.0005                60.8414
 Red. masses --     6.2883                 6.0873                 6.3541
 Frc consts  --     0.0103                 0.0105                 0.0139
 IR Inten    --     0.2930                 1.6481                 0.3928
 Raman Activ --     0.0425                 0.1048                 0.0428

                    10                     11                     12
                     A                      A                      A
 Frequencies --    68.6943                91.0134               103.9927
 Red. masses --     6.5595                 6.8333                 5.3486
 Frc consts  --     0.0182                 0.0333                 0.0341
 IR Inten    --     0.8837                 0.7153                 1.4431
 Raman Activ --     0.0467                 0.1561                 0.0631

                    13                     14                     15
                     A                      A                      A
 Frequencies --   153.9597               170.5724               177.5023
 Red. masses --     6.0682                 5.8825                 7.2534
 Frc consts  --     0.0847                 0.1008                 0.1346
 IR Inten    --     3.6639                 1.5273                 2.7539
 Raman Activ --     0.6288                 0.2052                 0.8982

                    16                     17                     18
                     A                      A                      A
 Frequencies --   215.9282               235.6127               268.7256
 Red. masses --     6.7351                 6.1619                 5.8175
 Frc consts  --     0.1850                 0.2015                 0.2475
 IR Inten    --     1.1341                 0.9043                 4.1036
 Raman Activ --     1.9733                 0.6104                 0.1488

                    19                     20                     21
                     A                      A                      A
 Frequencies --   279.9322               294.4137               309.4391
 Red. masses --     4.3218                 5.3901                 4.5829
 Frc consts  --     0.1995                 0.2753                 0.2585
 IR Inten    --    17.7838                 3.5744                 3.2638
 Raman Activ --     0.5926                 0.2950                 0.2675

                    22                     23                     24
                     A                      A                      A
 Frequencies --   314.5388               320.1366               327.9292
 Red. masses --     6.3078                 5.0924                 5.7220
 Frc consts  --     0.3677                 0.3075                 0.3625
 IR Inten    --     1.2542                 0.5859                 0.6514
 Raman Activ --     2.9829                 0.5401                 3.6848

                    25                     26                     27
                     A                      A                      A
 Frequencies --   349.8775               361.4482               378.9299
 Red. masses --     6.5977                 4.8938                 7.1283
 Frc consts  --     0.4759                 0.3767                 0.6031
 IR Inten    --    15.4997                 6.4716                 6.3791
 Raman Activ --     3.4988                 0.4359                 1.7261

                    28                     29                     30
                     A                      A                      A
 Frequencies --   412.8595               425.8389               432.4267
 Red. masses --     3.7008                 5.6346                 5.3786
 Frc consts  --     0.3717                 0.6020                 0.5926
 IR Inten    --    25.1236                 2.5444                 1.2132
 Raman Activ --     1.9854                 5.7866                 0.7254

                    31                     32                     33
                     A                      A                      A
 Frequencies --   446.5556               476.0506               492.1564
 Red. masses --     5.1317                 4.3661                 4.1476
 Frc consts  --     0.6029                 0.5830                 0.5919
 IR Inten    --     3.4300                 5.5289                 9.3091
 Raman Activ --     2.1865                 5.6642                 0.2648

                    34                     35                     36
                     A                      A                      A
 Frequencies --   516.8342               534.0823               565.0849
 Red. masses --     3.9523                 3.2173                 3.4432
 Frc consts  --     0.6220                 0.5407                 0.6478
 IR Inten    --    13.5858                21.1791                20.7139
 Raman Activ --     2.3417                 3.9496                 0.6430

                    37                     38                     39
                     A                      A                      A
 Frequencies --   581.7316               596.8167               620.5812
 Red. masses --     3.2109                 4.9840                 1.5910
 Frc consts  --     0.6402                 1.0459                 0.3610
 IR Inten    --    21.0803                12.0244                34.1125
 Raman Activ --     1.3628                 0.8095                 1.1221

                    40                     41                     42
                     A                      A                      A
 Frequencies --   630.5534               640.5771               648.3248
 Red. masses --     2.6176                 2.1392                 1.3149
 Frc consts  --     0.6132                 0.5172                 0.3256
 IR Inten    --    39.9287                22.4951               129.2823
 Raman Activ --     0.5690                 1.5527                 2.1490

                    43                     44                     45
                     A                      A                      A
 Frequencies --   684.9342               699.0293               705.3738
 Red. masses --     1.0615                 1.4699                 2.4851
 Frc consts  --     0.2934                 0.4232                 0.7285
 IR Inten    --   118.0779                55.8333                50.6524
 Raman Activ --     2.1710                 0.5564                 1.3776

                    46                     47                     48
                     A                      A                      A
 Frequencies --   738.5980               824.5308               853.4711
 Red. masses --     1.0765                 1.0904                 1.7520
 Frc consts  --     0.3460                 0.4368                 0.7519
 IR Inten    --   185.8467               145.4669                 2.5021
 Raman Activ --     2.5809                 4.1517                 1.1414

                    49                     50                     51
                     A                      A                      A
 Frequencies --   853.8240               938.1034               959.4631
 Red. masses --     1.7253                 5.0441                 5.2540
 Frc consts  --     0.7411                 2.6154                 2.8497
 IR Inten    --     1.0879               193.7281                14.0494
 Raman Activ --     0.5826                 4.0276                 0.6670

                    52                     53                     54
                     A                      A                      A
 Frequencies --   992.1430               995.9483              1001.2318
 Red. masses --     5.9019                 7.2635                 3.9135
 Frc consts  --     3.4228                 4.2449                 2.3115
 IR Inten    --    70.9998                88.9192                30.6602
 Raman Activ --     4.2839                 1.3764                 0.7724

                    55                     56                     57
                     A                      A                      A
 Frequencies --  1009.4906              1026.7895              1040.9867
 Red. masses --     5.8069                 5.6905                 6.0691
 Frc consts  --     3.4866                 3.5348                 3.8749
 IR Inten    --   374.6197                42.5344               103.1902
 Raman Activ --     1.8082                 2.2712                 2.2022

                    58                     59                     60
                     A                      A                      A
 Frequencies --  1050.6964              1063.0338              1068.2920
 Red. masses --     3.2502                 3.3009                 3.2788
 Frc consts  --     2.1141                 2.1977                 2.2047
 IR Inten    --   200.4442               104.7649                92.5586
 Raman Activ --     3.2641                 6.5536                 4.7698

                    61                     62                     63
                     A                      A                      A
 Frequencies --  1072.8968              1082.4631              1091.6708
 Red. masses --     4.9023                 4.1139                 4.5572
 Frc consts  --     3.3248                 2.8401                 3.1999
 IR Inten    --    74.3010                53.1703                17.9107
 Raman Activ --     4.7440                11.8233                 5.4864

                    64                     65                     66
                     A                      A                      A
 Frequencies --  1099.2835              1105.5366              1115.2081
 Red. masses --     2.7104                 3.3716                 3.7430
 Frc consts  --     1.9298                 2.4279                 2.7427
 IR Inten    --   207.5855                93.3027                45.5290
 Raman Activ --     1.9130                15.0267                 4.1439

                    67                     68                     69
                     A                      A                      A
 Frequencies --  1119.8090              1127.9086              1143.2712
 Red. masses --     2.7318                 2.2424                 2.4773
 Frc consts  --     2.0183                 1.6808                 1.9078
 IR Inten    --    11.2702                24.6283                13.8806
 Raman Activ --     2.7620                 7.4263                 1.8259

                    70                     71                     72
                     A                      A                      A
 Frequencies --  1148.8346              1150.7967              1160.8562
 Red. masses --     1.6975                 2.2069                 2.1662
 Frc consts  --     1.3200                 1.7220                 1.7199
 IR Inten    --     9.1190                17.1449                 8.3192
 Raman Activ --     5.3142                 3.0888                 5.1472

                    73                     74                     75
                     A                      A                      A
 Frequencies --  1171.3438              1173.5580              1186.5075
 Red. masses --     1.5055                 1.8885                 2.4182
 Frc consts  --     1.2170                 1.5324                 2.0058
 IR Inten    --     2.6954                 2.0617                41.3636
 Raman Activ --     0.9871                 1.3194                 2.0707

                    76                     77                     78
                     A                      A                      A
 Frequencies --  1192.5213              1207.4251              1221.6109
 Red. masses --     1.4096                 1.3660                 1.2334
 Frc consts  --     1.1811                 1.1734                 1.0845
 IR Inten    --    25.7446                 7.9334                13.4694
 Raman Activ --     7.2166                 4.1614                 1.4605

                    79                     80                     81
                     A                      A                      A
 Frequencies --  1239.7463              1258.6356              1261.0577
 Red. masses --     1.3150                 1.4597                 1.2639
 Frc consts  --     1.1908                 1.3625                 1.1843
 IR Inten    --    14.9185                27.8233                34.3785
 Raman Activ --     0.2697                 2.7766                 0.4305

                    82                     83                     84
                     A                      A                      A
 Frequencies --  1270.3853              1276.3305              1283.3890
 Red. masses --     1.4610                 1.1868                 1.2098
 Frc consts  --     1.3892                 1.1391                 1.1741
 IR Inten    --    27.5708                 9.4653                 5.2230
 Raman Activ --     1.0946                 2.7042                 4.4460

                    85                     86                     87
                     A                      A                      A
 Frequencies --  1289.3183              1294.4021              1304.2463
 Red. masses --     1.2569                 1.3311                 1.2898
 Frc consts  --     1.2310                 1.3141                 1.2927
 IR Inten    --     4.0271                 5.9945                17.7951
 Raman Activ --     5.3747                 2.1961                 4.8736

                    88                     89                     90
                     A                      A                      A
 Frequencies --  1312.0390              1320.3011              1333.7056
 Red. masses --     1.2459                 1.1862                 1.3724
 Frc consts  --     1.2637                 1.2183                 1.4383
 IR Inten    --    27.5368                21.4824                28.8792
 Raman Activ --     7.5677                 4.8326                 8.2343

                    91                     92                     93
                     A                      A                      A
 Frequencies --  1341.0500              1347.8335              1358.3601
 Red. masses --     1.2707                 1.2657                 1.2199
 Frc consts  --     1.3464                 1.3547                 1.3262
 IR Inten    --    39.9897                11.2656                38.2296
 Raman Activ --     6.9350                 2.7897                 2.9908

                    94                     95                     96
                     A                      A                      A
 Frequencies --  1363.2296              1369.7079              1383.2036
 Red. masses --     1.4946                 1.4643                 1.6323
 Frc consts  --     1.6365                 1.6186                 1.8400
 IR Inten    --    27.5774                 7.5747                 3.3893
 Raman Activ --     3.6857                 8.2232                 7.1275

                    97                     98                     99
                     A                      A                      A
 Frequencies --  1392.3236              1393.8276              1419.2794
 Red. masses --     1.1736                 1.6613                 1.3597
 Frc consts  --     1.3404                 1.9016                 1.6137
 IR Inten    --    12.5134                13.8652                22.7425
 Raman Activ --     1.9277                 5.6490                 2.3138

                   100                    101                    102
                     A                      A                      A
 Frequencies --  1431.6094              1433.2953              1439.0094
 Red. masses --     1.3492                 1.3258                 1.5139
 Frc consts  --     1.6292                 1.6047                 1.8471
 IR Inten    --    16.6907                46.2638                23.4606
 Raman Activ --     3.3226                 5.7706                 0.8584

                   103                    104                    105
                     A                      A                      A
 Frequencies --  1459.1666              1478.0708              1483.1255
 Red. masses --     1.4392                 1.0768                 1.0955
 Frc consts  --     1.8054                 1.3861                 1.4198
 IR Inten    --     6.3400                 3.8619                 1.8490
 Raman Activ --     1.8728                 5.7577                 4.0462

                   106                    107                    108
                     A                      A                      A
 Frequencies --  1490.9299              1519.2769              3267.3024
 Red. masses --     1.2547                 1.2885                 1.0587
 Frc consts  --     1.6433                 1.7523                 6.6587
 IR Inten    --    38.2581                52.3421                32.4383
 Raman Activ --     1.2503                 3.0796                55.5222

                   109                    110                    111
                     A                      A                      A
 Frequencies --  3270.2956              3273.0815              3275.4544
 Red. masses --     1.0796                 1.0810                 1.0617
 Frc consts  --     6.8028                 6.8229                 6.7114
 IR Inten    --    12.6018                26.2157                98.6831
 Raman Activ --   120.1326                 7.9415                91.9544

                   112                    113                    114
                     A                      A                      A
 Frequencies --  3286.0911              3289.1199              3292.7852
 Red. masses --     1.0831                 1.0836                 1.0836
 Frc consts  --     6.8906                 6.9069                 6.9223
 IR Inten    --     9.6900                20.0441                61.3813
 Raman Activ --    26.9491               140.3913                18.0114

                   115                    116                    117
                     A                      A                      A
 Frequencies --  3296.0071              3304.1206              3306.7225
 Red. masses --     1.0844                 1.0726                 1.0868
 Frc consts  --     6.9409                 6.8990                 7.0013
 IR Inten    --    40.3746               399.1696                 2.3551
 Raman Activ --   136.0854               195.9387                 2.5551

                   118                    119                    120
                     A                      A                      A
 Frequencies --  3309.2623              3311.8528              3323.4068
 Red. masses --     1.0853                 1.0873                 1.1027
 Frc consts  --     7.0025                 7.0264                 7.1762
 IR Inten    --   182.9993                12.9480                42.8547
 Raman Activ --    43.8264               123.0796                16.6517

                   121                    122                    123
                     A                      A                      A
 Frequencies --  3324.8730              3332.4021              3334.9273
 Red. masses --     1.0872                 1.0683                 1.1068
 Frc consts  --     7.0812                 6.9895                 7.2528
 IR Inten    --    38.8390               604.0086                50.2460
 Raman Activ --     9.2199               124.3607                34.1435

                   124                    125                    126
                     A                      A                      A
 Frequencies --  3383.3998              3388.5896              3398.7595
 Red. masses --     1.0658                 1.0673                 1.0666
 Frc consts  --     7.1886                 7.2206                 7.2591
 IR Inten    --    36.6905                40.7847                50.0011
 Raman Activ --    94.5070               177.9879               129.6415

                   127                    128                    129
                     A                      A                      A
 Frequencies --  3400.1852              3916.2714              3921.9510
 Red. masses --     1.0680                 1.0679                 1.0675
 Frc consts  --     7.2748                 9.6499                 9.6741
 IR Inten    --    53.8809                65.5735                60.4979
 Raman Activ --   158.7567                92.4707               124.5772

 - Thermochemistry -
 -------------------
 Temperature   298.150 Kelvin.  Pressure   1.00000 Atm.
 Atom     1 has atomic number  8 and mass  15.99491

 Molecular mass:   342.11621 amu.
 Principal axes and moments of inertia in atomic units:
                           1         2         3
     Eigenvalues --  4449.78912********************
           X            0.99997  -0.00770   0.00070
           Y            0.00770   0.99997  -0.00067
           Z           -0.00069   0.00067   1.00000
 This molecule is an asymmetric top.
 Rotational symmetry number  1.
 Warning -- assumption of classical behavior for rotation
           may cause significant error
 Rotational temperatures (Kelvin)      0.01946     0.00712     0.00537
 Rotational constants (GHZ):           0.40558     0.14826     0.11199
    7 imaginary frequencies ignored.
 Zero-point vibrational energy     977284.0 (Joules/Mol)
                                  233.57647 (Kcal/Mol)
 Warning -- explicit consideration of  32 degrees of freedom as
           vibrations may cause significant error
 Vibrational temperatures:     77.69    87.54    98.84   130.95   149.62
          (Kelvin)            221.51   245.42   255.39   310.67   338.99
                              386.64   402.76   423.60   445.21   452.55
                              460.60   471.82   503.40   520.04   545.19
                              594.01   612.69   622.16   642.49   684.93
                              708.10   743.61   768.42   813.03   836.98
                              858.68   892.88   907.22   921.65   932.79
                              985.47  1005.75  1014.87  1062.68  1186.31
                             1227.95  1228.46  1349.72  1380.45  1427.47
                             1432.95  1440.55  1452.43  1477.32  1497.75
                             1511.72  1529.47  1537.03  1543.66  1557.42
                             1570.67  1581.62  1590.62  1604.53  1611.15
                             1622.81  1644.91  1652.91  1655.74  1670.21
                             1685.30  1688.49  1707.12  1715.77  1737.21
                             1757.62  1783.72  1810.89  1814.38  1827.80
                             1836.35  1846.51  1855.04  1862.35  1876.52
                             1887.73  1899.62  1918.90  1929.47  1939.23
                             1954.37  1961.38  1970.70  1990.12  2003.24
                             2005.40  2042.02  2059.76  2062.19  2070.41
                             2099.41  2126.61  2133.88  2145.11  2185.90
                             4700.91  4705.22  4709.23  4712.64  4727.95
                             4732.30  4737.58  4742.21  4753.89  4757.63
                             4761.28  4765.01  4781.64  4783.74  4794.58
                             4798.21  4867.95  4875.42  4890.05  4892.10
                             5634.63  5642.81

 Zero-point correction=                           0.372228 (Hartree/Particle)
 Thermal correction to Energy=                    0.390595
 Thermal correction to Enthalpy=                  0.391539
 Thermal correction to Gibbs Free Energy=         0.326633
 Sum of electronic and zero-point Energies=          -1297.565573
 Sum of electronic and thermal Energies=             -1297.547206
 Sum of electronic and thermal Enthalpies=           -1297.546262
 Sum of electronic and thermal Free Energies=        -1297.611168

                     E (Thermal)             CV                S
                      KCal/Mol        Cal/Mol-Kelvin    Cal/Mol-Kelvin
 Total                  245.102             76.041            136.606
 Electronic               0.000              0.000              0.000
 Translational            0.889              2.981             43.384
 Rotational               0.889              2.981             35.122
 Vibrational            243.325             70.079             58.099
 Vibration     1          0.596              1.976              4.665
 Vibration     2          0.597              1.973              4.430
 Vibration     3          0.598              1.969              4.190
 Vibration     4          0.602              1.956              3.638
 Vibration     5          0.605              1.946              3.378
 Vibration     6          0.619              1.898              2.623
 Vibration     7          0.626              1.879              2.429
 Vibration     8          0.628              1.870              2.355
 Vibration     9          0.645              1.817              1.993
 Vibration    10          0.655              1.786              1.836
 Vibration    11          0.673              1.731              1.604
 Vibration    12          0.680              1.711              1.534
 Vibration    13          0.689              1.684              1.448
 Vibration    14          0.699              1.656              1.365
 Vibration    15          0.702              1.646              1.338
 Vibration    16          0.706              1.635              1.309
 Vibration    17          0.711              1.620              1.270
 Vibration    18          0.727              1.576              1.167
 Vibration    19          0.736              1.552              1.116
 Vibration    20          0.749              1.515              1.043
 Vibration    21          0.777              1.442              0.917
 Vibration    22          0.788              1.414              0.872
 Vibration    23          0.793              1.400              0.851
 Vibration    24          0.806              1.368              0.806
 Vibration    25          0.833              1.303              0.721
 Vibration    26          0.848              1.267              0.678
 Vibration    27          0.872              1.213              0.617
 Vibration    28          0.889              1.175              0.578
 Vibration    29          0.921              1.107              0.514
 Vibration    30          0.938              1.071              0.482
 Vibration    31          0.955              1.039              0.455
 Vibration    32          0.981              0.988              0.416

 Normal termination of Gaussian 09 at Thu Jan 21 05:28:06 2016.
