 Gaussian 09, Revision B.01,
 Gaussian 09:  EM64L-G09RevB.01 12-Aug-2010

 -------------------------------------------------
 # freq=raman b3lyp/6-31+g(2d,p) geom=connectivity
 -------------------------------------------------

 -----------------
 400 6778/6778.com
 -----------------
 Symbolic Z-matrix:
 Charge =  0 Multiplicity = 1

                         Standard orientation:
 ---------------------------------------------------------------------
 Center     Atomic      Atomic             Coordinates (Angstroms)
 Number     Number       Type             X           Y           Z
 ---------------------------------------------------------------------
      1          8           0        5.024574   -0.438100   -0.144790
      2          6           0        3.697860   -0.098644    0.283016
      3          6           0        3.261219    1.279951   -0.183686
      4          8           0        4.117477    2.370049    0.188724
      5          1           0        5.023835    1.964407    0.069533
      6          6           0        1.840931    1.632521    0.228597
      7          8           0        1.359349    2.833060   -0.392058
      8          1           0        0.363468    2.796226   -0.307641
      9          6           0        3.045890   -2.622325    0.184803
     10          8           0        4.201829   -3.313070   -0.309667
     11          1           0        4.179300   -4.221269    0.108731
     12          6           0        2.724784   -1.178528   -0.164961
     13          8           0        1.375875   -0.845343    0.191116
     14          6           0        1.028635    0.459394   -0.295119
     15          8           0       -0.268303    0.650993    0.287218
     16          6           0       -1.555220    0.245853   -0.201394
     17          6           0       -1.909054   -1.167751    0.230368
     18          8           0       -0.920751   -2.059658   -0.306357
     19          1           0       -0.107717   -1.476717   -0.313559
     20          6           0       -3.323024   -1.658077   -0.040452
     21          8           0       -3.888001   -2.833335    0.557596
     22          1           0       -4.738910   -2.876154    0.034240
     23          6           0       -2.394744    2.657074   -0.174180
     24          8           0       -1.282497    3.363093    0.394664
     25          1           0       -1.455161    4.347643    0.427692
     26          6           0       -2.639664    1.214568    0.237701
     27          8           0       -3.932218    0.828118   -0.253129
     28          6           0       -4.286029   -0.498999    0.160274
     29          8           0       -5.529011   -0.693859   -0.529690
     30          1           0       -6.251079   -0.684099    0.102863
     31          1           0       -3.279553    3.211613    0.059272
     32          1           0       -2.273067    2.670554   -1.237153
     33          1           0       -2.679149    1.187641    1.306633
     34          1           0       -1.517396    0.260678   -1.270623
     35          1           0       -1.788919   -1.191175    1.293344
     36          1           0       -3.338709   -1.859704   -1.091166
     37          1           0       -4.504757   -0.454908    1.206751
     38          1           0        5.607258   -0.473714    0.617319
     39          1           0        2.197055   -3.201578   -0.113265
     40          1           0        3.098787   -2.670188    1.252422
     41          1           0        2.749608   -1.143424   -1.234097
     42          1           0        3.697919   -0.089459    1.352976
     43          1           0        3.265780    1.246589   -1.253156
     44          1           0        1.762409    1.698896    1.293646
     45          1           0        0.972911    0.472345   -1.363588
 ---------------------------------------------------------------------

 SCF Done:  E(RB3LYP) =  -1297.96333445     A.U. after   13 cycles

 The electronic state is 1-A.
 Alpha  occ. eigenvalues --  -19.19691 -19.18290 -19.18234 -19.17877 -19.17839
 Alpha  occ. eigenvalues --  -19.17711 -19.17013 -19.16405 -19.15839 -19.14478
 Alpha  occ. eigenvalues --  -19.13572 -10.31471 -10.30328 -10.26302 -10.26248
 Alpha  occ. eigenvalues --  -10.26088 -10.25951 -10.25233 -10.25132 -10.24767
 Alpha  occ. eigenvalues --  -10.24499 -10.24477 -10.24445  -1.10994  -1.09316
 Alpha  occ. eigenvalues --   -1.05858  -1.05060  -1.04297  -1.04060  -1.03036
 Alpha  occ. eigenvalues --   -1.02796  -1.02601  -1.01244  -1.00607  -0.82706
 Alpha  occ. eigenvalues --   -0.81185  -0.79292  -0.78644  -0.72528  -0.70318
 Alpha  occ. eigenvalues --   -0.67843  -0.64888  -0.63245  -0.63068  -0.61367
 Alpha  occ. eigenvalues --   -0.60254  -0.56688  -0.56342  -0.55335  -0.55020
 Alpha  occ. eigenvalues --   -0.54150  -0.53638  -0.52663  -0.51775  -0.51155
 Alpha  occ. eigenvalues --   -0.50924  -0.50620  -0.50085  -0.48976  -0.46947
 Alpha  occ. eigenvalues --   -0.46213  -0.45398  -0.44760  -0.44103  -0.43388
 Alpha  occ. eigenvalues --   -0.42880  -0.42385  -0.41249  -0.40759  -0.40070
 Alpha  occ. eigenvalues --   -0.39004  -0.38023  -0.37168  -0.37045  -0.36502
 Alpha  occ. eigenvalues --   -0.35404  -0.35209  -0.34937  -0.34048  -0.33077
 Alpha  occ. eigenvalues --   -0.32806  -0.31705  -0.30900  -0.30710  -0.30279
 Alpha  occ. eigenvalues --   -0.30223  -0.28698  -0.28362  -0.28182  -0.27432
 Alpha  occ. eigenvalues --   -0.26399
 Alpha virt. eigenvalues --   -0.02287  -0.01851  -0.01591  -0.00510   0.00237
 Alpha virt. eigenvalues --    0.01001   0.01702   0.02199   0.02830   0.03205
 Alpha virt. eigenvalues --    0.03800   0.04296   0.04600   0.05233   0.05435

 Mulliken atomic charges:
              1
     1  O   -0.517649
     2  C   -0.027859
     3  C    0.190033
     4  O   -0.555538
     5  H    0.333445
     6  C    0.095110
     7  O   -0.540301
     8  H    0.397259
     9  C   -0.205916
    10  O   -0.498844
    11  H    0.332991
    12  C    0.066054
    13  O   -0.197732
    14  C   -0.057646
    15  O   -0.285791
    16  C    0.106480
    17  C    0.408146
    18  O   -0.573037
    19  H    0.395328
    20  C   -0.131441
    21  O   -0.514962
    22  H    0.344280
    23  C   -0.254131
    24  O   -0.554568
    25  H    0.361063
    26  C   -0.062870
    27  O   -0.232265
    28  C    0.189154
    29  O   -0.539021
    30  H    0.336881
    31  H    0.145084
    32  H    0.152913
    33  H    0.120765
    34  H    0.125458
    35  H    0.119794
    36  H    0.136971
    37  H    0.120550
    38  H    0.338783
    39  H    0.160159
    40  H    0.133252
    41  H    0.114647
    42  H    0.115009
    43  H    0.120231
    44  H    0.137755
    45  H    0.151976
 Sum of Mulliken atomic charges =   0.00000

 Dipole moment (field-independent basis, Debye):
    X=             -1.6538    Y=              0.4034    Z=              2.4806  Tot=              3.0085
 Quadrupole moment (field-independent basis, Debye-Ang):
   XX=           -119.7934   YY=           -139.9474   ZZ=           -138.6740
   XY=            -17.5286   XZ=              4.4116   YZ=             -2.1755

  Exact polarizability: 234.231   1.580 200.216   0.503  -0.732 144.347
 Approx polarizability: 275.212   0.797 261.855   0.413  -0.860 239.809

 ******    6 imaginary frequencies (negative Signs) ******

                     1                      2                      3
                     A                      A                      A
 Frequencies --  -326.9276              -266.1039              -174.8479
 Red. masses --     1.6946                 1.7515                 1.3439
 Frc consts  --     0.1067                 0.0731                 0.0242
 IR Inten    --     4.0688                 3.2067                91.8810
 Raman Activ --     0.0601                 0.0650                 0.7129

                     4                      5                      6
                     A                      A                      A
 Frequencies --  -140.0485               -79.9677               -65.7869
 Red. masses --     1.3449                 6.0618                 5.8427
 Frc consts  --     0.0155                 0.0228                 0.0149
 IR Inten    --    85.8193                 2.3525                 0.4237
 Raman Activ --     0.7096                 0.0890                 0.0365

                     7                      8                      9
                     A                      A                      A
 Frequencies --    33.1831                57.2506                67.3787
 Red. masses --     6.5436                 5.4450                 6.5661
 Frc consts  --     0.0042                 0.0105                 0.0176
 IR Inten    --     1.7609                 2.2151                 3.6763
 Raman Activ --     0.0372                 0.0928                 0.1391

                    10                     11                     12
                     A                      A                      A
 Frequencies --    70.9386                89.1789               100.1769
 Red. masses --     4.1776                 5.7528                 5.9803
 Frc consts  --     0.0124                 0.0270                 0.0354
 IR Inten    --    20.2040                 0.9056                 1.3049
 Raman Activ --     0.3120                 0.2145                 0.0478

                    13                     14                     15
                     A                      A                      A
 Frequencies --   131.1795               156.9102               176.0679
 Red. masses --     5.9095                 6.3336                 6.7445
 Frc consts  --     0.0599                 0.0919                 0.1232
 IR Inten    --     6.6416                 0.9792                 0.3016
 Raman Activ --     0.3146                 0.1751                 0.2912

                    16                     17                     18
                     A                      A                      A
 Frequencies --   200.5729               228.0533               244.7351
 Red. masses --     7.0257                 6.1895                 4.4222
 Frc consts  --     0.1665                 0.1897                 0.1561
 IR Inten    --     0.0541                 1.5752                14.2344
 Raman Activ --     3.3846                 0.5602                 0.2512

                    19                     20                     21
                     A                      A                      A
 Frequencies --   256.2434               276.8019               300.0065
 Red. masses --     4.8721                 3.8926                 4.6672
 Frc consts  --     0.1885                 0.1757                 0.2475
 IR Inten    --     1.7539                 0.4096                 8.8471
 Raman Activ --     0.1100                 0.0430                 0.0497

                    22                     23                     24
                     A                      A                      A
 Frequencies --   302.1515               313.7031               316.8610
 Red. masses --     4.7135                 6.1166                 5.5895
 Frc consts  --     0.2535                 0.3546                 0.3306
 IR Inten    --     2.9742                 3.2562                 3.1630
 Raman Activ --     1.0297                 4.4151                 2.9805

                    25                     26                     27
                     A                      A                      A
 Frequencies --   334.3795               354.6478               357.6735
 Red. masses --     6.4427                 4.9225                 4.9192
 Frc consts  --     0.4244                 0.3648                 0.3708
 IR Inten    --     2.1622                 1.2677                 4.1536
 Raman Activ --     3.9285                 0.3311                 0.3937

                    28                     29                     30
                     A                      A                      A
 Frequencies --   394.0456               417.2871               429.8392
 Red. masses --     5.3527                 6.8063                 4.0833
 Frc consts  --     0.4897                 0.6983                 0.4445
 IR Inten    --    20.5745                 3.3304                 2.3798
 Raman Activ --     3.6948                 7.8678                 0.9070

                    31                     32                     33
                     A                      A                      A
 Frequencies --   443.5092               452.1058               479.4370
 Red. masses --     6.0433                 3.9787                 4.5980
 Frc consts  --     0.7004                 0.4792                 0.6227
 IR Inten    --     2.6218                 5.7728                 6.4129
 Raman Activ --     1.6134                 3.3347                 0.8681

                    34                     35                     36
                     A                      A                      A
 Frequencies --   503.4399               516.0096               546.7043
 Red. masses --     3.4754                 4.2448                 2.8995
 Frc consts  --     0.5190                 0.6659                 0.5106
 IR Inten    --     1.3013                 7.1557                15.7634
 Raman Activ --     5.7447                 0.6890                 1.3652

                    37                     38                     39
                     A                      A                      A
 Frequencies --   568.8470               587.4035               599.7365
 Red. masses --     3.4481                 6.8680                 3.9642
 Frc consts  --     0.6574                 1.3962                 0.8401
 IR Inten    --    34.4343                 4.9735                 5.0475
 Raman Activ --     1.2045                 0.7208                 0.2878

                    40                     41                     42
                     A                      A                      A
 Frequencies --   627.9153               683.8618               699.0080
 Red. masses --     5.4344                 5.1911                 1.0757
 Frc consts  --     1.2624                 1.4304                 0.3097
 IR Inten    --    46.5512                16.9123                88.8549
 Raman Activ --     2.2507                 1.7624                 1.8184

                    43                     44                     45
                     A                      A                      A
 Frequencies --   701.2930               753.0007               759.8023
 Red. masses --     1.0842                 1.1239                 1.1152
 Frc consts  --     0.3142                 0.3755                 0.3793
 IR Inten    --   109.7383                83.9778                85.1698
 Raman Activ --     1.6859                 0.8998                 1.5212

                    46                     47                     48
                     A                      A                      A
 Frequencies --   768.9586               794.9218               844.2312
 Red. masses --     1.0898                 1.0846                 1.8975
 Frc consts  --     0.3797                 0.4038                 0.7968
 IR Inten    --    83.5640               121.4269                 4.0710
 Raman Activ --     1.3845                 1.1706                 0.6806

                    49                     50                     51
                     A                      A                      A
 Frequencies --   853.2243               906.3948               968.4940
 Red. masses --     1.7273                 6.2077                 6.5979
 Frc consts  --     0.7409                 3.0048                 3.6463
 IR Inten    --     6.9779                51.8350                33.7423
 Raman Activ --     0.5677                 3.6173                 2.0299

                    52                     53                     54
                     A                      A                      A
 Frequencies --   971.7563               977.1709               982.0416
 Red. masses --     5.8941                 6.7585                 4.1114
 Frc consts  --     3.2793                 3.8022                 2.3361
 IR Inten    --   134.7678               169.4463                 7.6693
 Raman Activ --     1.5474                 0.4874                 0.9311

                    55                     56                     57
                     A                      A                      A
 Frequencies --  1002.2894              1007.6927              1028.5051
 Red. masses --     6.5233                 6.2335                 5.5731
 Frc consts  --     3.8611                 3.7294                 3.4735
 IR Inten    --    67.5265               480.4448               150.2103
 Raman Activ --     1.5459                 4.5861                 2.2893

                    58                     59                     60
                     A                      A                      A
 Frequencies --  1031.1658              1048.3524              1061.3166
 Red. masses --     5.4478                 5.7182                 4.0795
 Frc consts  --     3.4130                 3.7028                 2.7074
 IR Inten    --   229.1031               145.5959                18.3475
 Raman Activ --     1.3971                 4.8382                 6.7481

                    61                     62                     63
                     A                      A                      A
 Frequencies --  1069.4272              1075.0385              1079.6269
 Red. masses --     5.0709                 5.0265                 6.4908
 Frc consts  --     3.4169                 3.4226                 4.4576
 IR Inten    --    64.1459                74.4012                 8.2291
 Raman Activ --     2.4208                14.6575                 6.4386

                    64                     65                     66
                     A                      A                      A
 Frequencies --  1094.3342              1114.7426              1118.9484
 Red. masses --     2.2089                 3.7953                 2.7018
 Frc consts  --     1.5586                 2.7787                 1.9931
 IR Inten    --    62.3745                31.2631                41.8642
 Raman Activ --     1.6764                 9.9733                 1.1125

                    67                     68                     69
                     A                      A                      A
 Frequencies --  1121.5558              1134.3283              1136.9394
 Red. masses --     2.6794                 2.9244                 2.7506
 Frc consts  --     1.9858                 2.2170                 2.0948
 IR Inten    --     8.9448                25.3953                27.9137
 Raman Activ --     8.7744                10.3841                 6.8166

                    70                     71                     72
                     A                      A                      A
 Frequencies --  1151.0892              1154.3130              1164.6901
 Red. masses --     2.7060                 2.4740                 1.7994
 Frc consts  --     2.1125                 1.9422                 1.4381
 IR Inten    --    38.1908                 3.3734                11.6596
 Raman Activ --     5.7890                 3.6072                 1.8512

                    73                     74                     75
                     A                      A                      A
 Frequencies --  1179.0014              1183.4421              1196.3599
 Red. masses --     1.8438                 1.8820                 1.6938
 Frc consts  --     1.5101                 1.5530                 1.4283
 IR Inten    --     1.7685                11.4506                 1.3811
 Raman Activ --     3.3577                 3.5348                 1.5032

                    76                     77                     78
                     A                      A                      A
 Frequencies --  1214.9412              1217.3836              1223.4229
 Red. masses --     1.3690                 1.4073                 1.2622
 Frc consts  --     1.1906                 1.2288                 1.1131
 IR Inten    --     9.8622                 9.0191                 2.5829
 Raman Activ --     1.6274                 1.5515                 2.7106

                    79                     80                     81
                     A                      A                      A
 Frequencies --  1242.9954              1257.6883              1272.2277
 Red. masses --     1.1840                 1.2346                 1.2666
 Frc consts  --     1.0778                 1.1506                 1.2079
 IR Inten    --    14.1687                 2.9217                17.0626
 Raman Activ --     1.2505                 0.7225                 3.3656

                    82                     83                     84
                     A                      A                      A
 Frequencies --  1277.8304              1285.2774              1291.2921
 Red. masses --     1.2331                 1.2024                 1.2956
 Frc consts  --     1.1863                 1.1703                 1.2728
 IR Inten    --     2.5567                 5.9743                27.4535
 Raman Activ --     1.5563                 2.5567                 0.5889

                    85                     86                     87
                     A                      A                      A
 Frequencies --  1298.0315              1309.9677              1317.5220
 Red. masses --     1.3648                 1.2462                 1.2715
 Frc consts  --     1.3548                 1.2600                 1.3004
 IR Inten    --    54.5585                11.8523                20.4708
 Raman Activ --     2.8023                 4.5121                 7.3597

                    88                     89                     90
                     A                      A                      A
 Frequencies --  1321.1164              1326.8584              1328.3060
 Red. masses --     1.2012                 1.2121                 1.2995
 Frc consts  --     1.2352                 1.2573                 1.3509
 IR Inten    --     2.8946                 4.9600                20.5125
 Raman Activ --     2.0990                 7.3892                 3.8069

                    91                     92                     93
                     A                      A                      A
 Frequencies --  1343.5136              1350.6100              1359.6068
 Red. masses --     1.2732                 1.3303                 1.2574
 Frc consts  --     1.3541                 1.4298                 1.3695
 IR Inten    --    16.2199                19.1596                28.7557
 Raman Activ --     3.2215                12.9284                 1.4464

                    94                     95                     96
                     A                      A                      A
 Frequencies --  1362.8719              1378.4498              1386.2047
 Red. masses --     1.1903                 1.2069                 1.3676
 Frc consts  --     1.3026                 1.3512                 1.5484
 IR Inten    --    38.4522                10.2771                 2.2044
 Raman Activ --     1.5048                 3.2357                 7.3938

                    97                     98                     99
                     A                      A                      A
 Frequencies --  1387.3503              1398.0961              1402.8482
 Red. masses --     1.6111                 1.5097                 1.2957
 Frc consts  --     1.8270                 1.7387                 1.5024
 IR Inten    --    10.6459                 6.3938                 4.5743
 Raman Activ --     5.6683                 4.7574                 4.8558

                   100                    101                    102
                     A                      A                      A
 Frequencies --  1448.8985              1470.0821              1471.4375
 Red. masses --     1.4133                 1.2405                 1.1191
 Frc consts  --     1.7481                 1.5795                 1.4276
 IR Inten    --    19.3035                29.4726                 4.5149
 Raman Activ --     0.9592                 0.7362                 4.8658

                   103                    104                    105
                     A                      A                      A
 Frequencies --  1472.2067              1484.7011              1491.7746
 Red. masses --     1.0914                 1.3557                 1.3689
 Frc consts  --     1.3937                 1.7607                 1.7948
 IR Inten    --     5.2152                13.0269                67.2428
 Raman Activ --     4.7457                 1.1724                 0.7325

                   106                    107                    108
                     A                      A                      A
 Frequencies --  1503.0309              1554.7475              3249.7388
 Red. masses --     1.2975                 1.2080                 1.0654
 Frc consts  --     1.7270                 1.7204                 6.6293
 IR Inten    --    51.2715                71.4082                 6.8250
 Raman Activ --     1.5126                 2.6951                94.0599

                   109                    110                    111
                     A                      A                      A
 Frequencies --  3256.7500              3258.5043              3259.3792
 Red. masses --     1.0744                 1.0717                 1.0650
 Frc consts  --     6.7139                 6.7047                 6.6660
 IR Inten    --    31.5354                42.7869                45.8419
 Raman Activ --    51.0590                15.7380               233.7040

                   112                    113                    114
                     A                      A                      A
 Frequencies --  3263.0630              3263.4920              3268.1200
 Red. masses --     1.0819                 1.0806                 1.0800
 Frc consts  --     6.7873                 6.7805                 6.7961
 IR Inten    --     2.8123                 8.2790                10.8414
 Raman Activ --     8.0422               111.1345                99.0553

                   115                    116                    117
                     A                      A                      A
 Frequencies --  3278.2109              3281.5851              3287.0930
 Red. masses --     1.0850                 1.0857                 1.0808
 Frc consts  --     6.8702                 6.8884                 6.8804
 IR Inten    --    17.2219                40.6475               180.2408
 Raman Activ --    13.4450                 6.1003                50.6499

                   118                    119                    120
                     A                      A                      A
 Frequencies --  3291.3393              3295.4254              3302.3089
 Red. masses --     1.0839                 1.0731                 1.0902
 Frc consts  --     6.9178                 6.8661                 7.0045
 IR Inten    --    41.2787               166.1264               169.8126
 Raman Activ --   125.0005               190.0430                 9.4492

                   121                    122                    123
                     A                      A                      A
 Frequencies --  3305.1033              3311.3962              3315.6785
 Red. masses --     1.0928                 1.0738                 1.1047
 Frc consts  --     7.0335                 6.9372                 7.1558
 IR Inten    --   319.7439               569.9585                35.3774
 Raman Activ --    42.7791                55.3491                62.2756

                   124                    125                    126
                     A                      A                      A
 Frequencies --  3363.4028              3366.2081              3366.9351
 Red. masses --     1.0646                 1.0668                 1.0648
 Frc consts  --     7.0959                 7.1220                 7.1120
 IR Inten    --    23.2381                56.8356                51.7867
 Raman Activ --    96.7362               145.2084                91.8351

                   127                    128                    129
                     A                      A                      A
 Frequencies --  3372.7273              3887.8842              3889.7315
 Red. masses --     1.0682                 1.0677                 1.0675
 Frc consts  --     7.1595                 9.5091                 9.5162
 IR Inten    --    68.5003                81.1090                75.3141
 Raman Activ --   155.8581                84.4529               115.4472

 - Thermochemistry -
 -------------------
 Temperature   298.150 Kelvin.  Pressure   1.00000 Atm.
 Atom     1 has atomic number  8 and mass  15.99491

 Molecular mass:   342.11621 amu.
 Principal axes and moments of inertia in atomic units:
                           1         2         3
     Eigenvalues --  4553.68611********************
           X            0.99996  -0.00850   0.00055
           Y            0.00850   0.99996  -0.00251
           Z           -0.00052   0.00251   1.00000
 This molecule is an asymmetric top.
 Rotational symmetry number  1.
 Warning -- assumption of classical behavior for rotation
           may cause significant error
 Rotational temperatures (Kelvin)      0.01902     0.00701     0.00523
 Rotational constants (GHZ):           0.39633     0.14614     0.10897
    6 imaginary frequencies ignored.
 Zero-point vibrational energy     974580.0 (Joules/Mol)
                                  232.93022 (Kcal/Mol)
 Warning -- explicit consideration of  33 degrees of freedom as
           vibrations may cause significant error
 Vibrational temperatures:     47.74    82.37    96.94   102.06   128.31
          (Kelvin)            144.13   188.74   225.76   253.32   288.58
                              328.12   352.12   368.68   398.26   431.64
                              434.73   451.35   455.89   481.10   510.26
                              514.61   566.94   600.38   618.44   638.11
                              650.48   689.80   724.34   742.42   786.58
                              818.44   845.14   862.89   903.43   983.92
                             1005.72  1009.00  1083.40  1093.18  1106.36
                             1143.71  1214.66  1227.60  1304.10  1393.45
                             1398.14  1405.93  1412.94  1442.07  1449.84
                             1479.79  1483.62  1508.34  1527.00  1538.67
                             1546.74  1553.34  1574.50  1603.86  1609.92
                             1613.67  1632.04  1635.80  1656.16  1660.80
                             1675.73  1696.32  1702.71  1721.29  1748.03
                             1751.54  1760.23  1788.39  1809.53  1830.45
                             1838.51  1849.23  1857.88  1867.58  1884.75
                             1895.62  1900.79  1909.05  1911.13  1933.01
                             1943.22  1956.17  1960.87  1983.28  1994.44
                             1996.09  2011.55  2018.38  2084.64  2115.12
                             2117.07  2118.17  2136.15  2146.33  2162.52
                             2236.93  4675.64  4685.73  4688.26  4689.51
                             4694.81  4695.43  4702.09  4716.61  4721.46
                             4729.39  4735.50  4741.38  4751.28  4755.30
                             4764.35  4770.52  4839.18  4843.22  4844.26
                             4852.60  5593.79  5596.45

 Zero-point correction=                           0.371198 (Hartree/Particle)
 Thermal correction to Energy=                    0.390749
 Thermal correction to Enthalpy=                  0.391693
 Thermal correction to Gibbs Free Energy=         0.323414
 Sum of electronic and zero-point Energies=          -1297.592137
 Sum of electronic and thermal Energies=             -1297.572586
 Sum of electronic and thermal Enthalpies=           -1297.571642
 Sum of electronic and thermal Free Energies=        -1297.639920

                     E (Thermal)             CV                S
                      KCal/Mol        Cal/Mol-Kelvin    Cal/Mol-Kelvin
 Total                  245.198             78.381            143.705
 Electronic               0.000              0.000              0.000
 Translational            0.889              2.981             43.384
 Rotational               0.889              2.981             35.187
 Vibrational            243.421             72.420             65.134
 Vibration     1          0.594              1.983              5.629
 Vibration     2          0.596              1.975              4.550
 Vibration     3          0.598              1.970              4.229
 Vibration     4          0.598              1.968              4.127
 Vibration     5          0.602              1.957              3.678
 Vibration     6          0.604              1.949              3.451
 Vibration     7          0.612              1.922              2.929
 Vibration     8          0.621              1.895              2.587
 Vibration     9          0.628              1.872              2.370
 Vibration    10          0.638              1.839              2.128
 Vibration    11          0.651              1.798              1.894
 Vibration    12          0.660              1.771              1.768
 Vibration    13          0.666              1.752              1.687
 Vibration    14          0.678              1.716              1.553
 Vibration    15          0.693              1.674              1.417
 Vibration    16          0.694              1.670              1.405
 Vibration    17          0.702              1.648              1.343
 Vibration    18          0.704              1.641              1.326
 Vibration    19          0.716              1.607              1.239
 Vibration    20          0.730              1.566              1.145
 Vibration    21          0.733              1.559              1.132
 Vibration    22          0.761              1.483              0.985
 Vibration    23          0.780              1.433              0.901
 Vibration    24          0.791              1.405              0.859
 Vibration    25          0.803              1.375              0.816
 Vibration    26          0.811              1.356              0.789
 Vibration    27          0.836              1.296              0.712
 Vibration    28          0.859              1.242              0.650
 Vibration    29          0.871              1.215              0.619
 Vibration    30          0.902              1.147              0.551
 Vibration    31          0.925              1.099              0.506
 Vibration    32          0.945              1.059              0.472
 Vibration    33          0.958              1.032              0.450

 Normal termination of Gaussian 09 at Sat Mar 26 11:07:10 2016.
