 Gaussian 09, Revision B.01,
 Gaussian 09:  EM64L-G09RevB.01 12-Aug-2010

 --------------------------------------------------
 # freq=raman b3lyp/6-31+g(2df,p) geom=connectivity
 --------------------------------------------------

 ------------
 320 6000.com
 ------------
 Symbolic Z-matrix:
 Charge =  0 Multiplicity = 1

                         Standard orientation:
 ---------------------------------------------------------------------
 Center     Atomic      Atomic             Coordinates (Angstroms)
 Number     Number       Type             X           Y           Z
 ---------------------------------------------------------------------
      1          8           0        5.031101   -0.254204   -0.165979
      2          6           0        3.701844   -0.040186    0.332626
      3          6           0        3.206419    1.275098   -0.244851
      4          8           0        4.096636    2.324885    0.164015
      5          1           0        5.035723    1.992409    0.073837
      6          6           0        1.785619    1.573452    0.206866
      7          8           0        1.251855    2.758660   -0.401777
      8          1           0        0.335794    2.915252   -0.030930
      9          6           0        3.270278   -2.505507   -0.080541
     10          8           0        4.539446   -3.083120   -0.420043
     11          1           0        4.411748   -4.035565   -0.695720
     12          6           0        2.731223   -1.088311   -0.186278
     13          8           0        1.394065   -0.881199    0.289460
     14          6           0        0.880482    0.395891   -0.117053
     15          8           0       -0.315833    0.719892    0.605416
     16          6           0       -1.550789    0.255673    0.040889
     17          6           0       -1.915545   -1.168048    0.429650
     18          8           0       -1.000094   -2.214539    0.074203
     19          1           0       -0.115394   -1.783315    0.254383
     20          6           0       -3.242172   -1.610592   -0.164805
     21          8           0       -3.701583   -2.735569    0.598291
     22          1           0       -4.540093   -3.059005    0.159193
     23          6           0       -2.551545    2.571480   -0.155256
     24          8           0       -1.401084    3.392960    0.091121
     25          1           0       -1.642128    4.351485   -0.060705
     26          6           0       -2.736670    1.152542    0.354889
     27          8           0       -3.942242    0.756488   -0.314595
     28          6           0       -4.338261   -0.577024    0.035811
     29          8           0       -5.438982   -0.827407   -0.850002
     30          1           0       -6.225177   -1.024735   -0.335649
     31          1           0       -4.677345   -0.599704    1.050409
     32          1           0       -3.137082   -1.865497   -1.198671
     33          1           0       -2.019950   -1.185845    1.494396
     34          1           0       -1.426355    0.265321   -1.021807
     35          1           0       -2.902888    1.170459    1.411748
     36          1           0       -3.392090    3.126181    0.206255
     37          1           0       -2.651956    2.517148   -1.219148
     38          1           0        5.630366   -0.395073    0.570660
     39          1           0        3.146525   -2.749771    0.953829
     40          1           0        2.566660   -3.089005   -0.636736
     41          1           0        2.671692   -0.903868   -1.238579
     42          1           0        3.695492   -0.011435    1.402221
     43          1           0        3.220545    1.208706   -1.312696
     44          1           0        1.791707    1.712844    1.267730
     45          1           0        0.672640    0.381437   -1.166573
 ---------------------------------------------------------------------

 SCF Done:  E(RB3LYP) =  -1297.99844119     A.U. after   14 cycles

 The electronic state is 1-A.
 Alpha  occ. eigenvalues --  -19.19861 -19.18803 -19.18180 -19.18070 -19.17904
 Alpha  occ. eigenvalues --  -19.17328 -19.16511 -19.16217 -19.14441 -19.14048
 Alpha  occ. eigenvalues --  -19.13429 -10.30792 -10.30139 -10.26483 -10.26231
 Alpha  occ. eigenvalues --  -10.25688 -10.25111 -10.24808 -10.24567 -10.24419
 Alpha  occ. eigenvalues --  -10.24034 -10.24021 -10.23761  -1.10391  -1.09141
 Alpha  occ. eigenvalues --   -1.05729  -1.05015  -1.04440  -1.03684  -1.02881
 Alpha  occ. eigenvalues --   -1.02718  -1.01422  -1.00797  -0.99684  -0.82335
 Alpha  occ. eigenvalues --   -0.81022  -0.79011  -0.78207  -0.72015  -0.69941
 Alpha  occ. eigenvalues --   -0.67252  -0.64981  -0.63134  -0.62742  -0.61320
 Alpha  occ. eigenvalues --   -0.60325  -0.56350  -0.55692  -0.55007  -0.54865
 Alpha  occ. eigenvalues --   -0.53856  -0.53252  -0.52449  -0.52316  -0.51719
 Alpha  occ. eigenvalues --   -0.50588  -0.49880  -0.49370  -0.48622  -0.46560
 Alpha  occ. eigenvalues --   -0.45675  -0.45166  -0.44221  -0.43794  -0.43293
 Alpha  occ. eigenvalues --   -0.42460  -0.41978  -0.41134  -0.40024  -0.39741
 Alpha  occ. eigenvalues --   -0.39064  -0.38083  -0.37385  -0.36997  -0.35872
 Alpha  occ. eigenvalues --   -0.35261  -0.35118  -0.33982  -0.33835  -0.33281
 Alpha  occ. eigenvalues --   -0.32934  -0.31217  -0.30775  -0.30398  -0.30288
 Alpha  occ. eigenvalues --   -0.29639  -0.28783  -0.28389  -0.27543  -0.26668
 Alpha  occ. eigenvalues --   -0.26558
 Alpha virt. eigenvalues --   -0.02229  -0.01923  -0.01822  -0.00414   0.00457
 Alpha virt. eigenvalues --    0.01219   0.01794   0.02438   0.03061   0.03550
 Alpha virt. eigenvalues --    0.03880   0.04280   0.04768   0.05275   0.05539

 Mulliken atomic charges:
              1
     1  O   -0.444433
     2  C   -0.162555
     3  C   -0.039127
     4  O   -0.472378
     5  H    0.349455
     6  C   -0.071755
     7  O   -0.472117
     8  H    0.428508
     9  C   -0.504060
    10  O   -0.442250
    11  H    0.354698
    12  C    0.291051
    13  O   -0.114018
    14  C    0.047554
    15  O   -0.018287
    16  C    0.063788
    17  C   -0.040599
    18  O   -0.470943
    19  H    0.412704
    20  C    0.101115
    21  O   -0.438774
    22  H    0.336262
    23  C   -0.364822
    24  O   -0.494824
    25  H    0.368722
    26  C   -0.205799
    27  O   -0.018183
    28  C   -0.136175
    29  O   -0.469672
    30  H    0.345996
    31  H    0.138203
    32  H    0.147640
    33  H    0.131202
    34  H    0.118688
    35  H    0.131429
    36  H    0.148540
    37  H    0.163014
    38  H    0.355412
    39  H    0.147506
    40  H    0.144731
    41  H    0.114502
    42  H    0.132806
    43  H    0.132328
    44  H    0.138378
    45  H    0.136539
 Sum of Mulliken atomic charges =   0.00000

 Dipole moment (field-independent basis, Debye):
    X=             -2.6831    Y=             -0.7865    Z=              1.3365  Tot=              3.0990
 Quadrupole moment (field-independent basis, Debye-Ang):
   XX=           -117.6119   YY=           -136.7488   ZZ=           -139.1251
   XY=            -15.1126   XZ=              0.1932   YZ=              4.6059

  Exact polarizability: 233.810   0.352 198.170   1.272   0.452 143.527
 Approx polarizability: 274.565  -0.464 258.396   1.685   1.327 238.956

 ******    7 imaginary frequencies (negative Signs) ******

                     1                      2                      3
                     A                      A                      A
 Frequencies --  -407.3116              -305.2006              -169.2048
 Red. masses --     1.5613                 1.7265                 1.2611
 Frc consts  --     0.1526                 0.0948                 0.0213
 IR Inten    --     1.5142                 2.0045                53.3220
 Raman Activ --     0.1063                 0.0376                 0.8892

                     4                      5                      6
                     A                      A                      A
 Frequencies --  -167.0385               -64.7630               -46.4659
 Red. masses --     1.2469                 6.6902                 6.3401
 Frc consts  --     0.0205                 0.0165                 0.0081
 IR Inten    --   151.4234                 0.6300                 0.6690
 Raman Activ --     0.6103                 0.0422                 0.0190

                     7                      8                      9
                     A                      A                      A
 Frequencies --   -26.1215                39.4160                71.8686
 Red. masses --     6.3337                 6.0609                 7.3026
 Frc consts  --     0.0025                 0.0055                 0.0222
 IR Inten    --     0.2865                 3.9312                 1.9856
 Raman Activ --     0.0045                 0.0978                 0.0211

                    10                     11                     12
                     A                      A                      A
 Frequencies --    82.0623               104.4343               110.4884
 Red. masses --     5.5760                 5.8965                 5.8696
 Frc consts  --     0.0221                 0.0379                 0.0422
 IR Inten    --     3.8410                 4.5027                 2.7503
 Raman Activ --     0.4626                 0.0569                 0.0900

                    13                     14                     15
                     A                      A                      A
 Frequencies --   151.2714               180.4293               181.5762
 Red. masses --     6.4359                 5.8431                 7.7638
 Frc consts  --     0.0868                 0.1121                 0.1508
 IR Inten    --     3.4642                 1.5413                 0.4718
 Raman Activ --     0.5810                 0.3049                 0.3858

                    16                     17                     18
                     A                      A                      A
 Frequencies --   204.7547               226.3144               264.4617
 Red. masses --     7.0989                 6.2165                 4.1958
 Frc consts  --     0.1754                 0.1876                 0.1729
 IR Inten    --     0.2609                 0.9680                20.4179
 Raman Activ --     2.5875                 0.9468                 0.3645

                    19                     20                     21
                     A                      A                      A
 Frequencies --   273.5706               296.6676               302.9509
 Red. masses --     4.8683                 6.1818                 4.9841
 Frc consts  --     0.2147                 0.3206                 0.2695
 IR Inten    --     1.2682                 1.7130                 0.7709
 Raman Activ --     0.2231                 4.2033                 0.7792

                    22                     23                     24
                     A                      A                      A
 Frequencies --   314.0286               321.5905               331.0488
 Red. masses --     4.6773                 6.4389                 4.9898
 Frc consts  --     0.2718                 0.3923                 0.3222
 IR Inten    --     2.2286                 4.4210                 4.4312
 Raman Activ --     0.7344                 2.1067                 0.9025

                    25                     26                     27
                     A                      A                      A
 Frequencies --   338.9185               366.5461               383.9383
 Red. masses --     6.8642                 4.4738                 5.4867
 Frc consts  --     0.4645                 0.3541                 0.4765
 IR Inten    --     6.7573                 2.8059                 2.1815
 Raman Activ --     2.2706                 1.0418                 0.7535

                    28                     29                     30
                     A                      A                      A
 Frequencies --   412.4440               419.2514               430.8696
 Red. masses --     5.7638                 5.4591                 4.7787
 Frc consts  --     0.5777                 0.5654                 0.5227
 IR Inten    --     9.2517                15.4977                 6.5308
 Raman Activ --     5.9785                 1.6123                 1.7463

                    31                     32                     33
                     A                      A                      A
 Frequencies --   438.9154               480.1785               486.6239
 Red. masses --     5.4917                 4.4346                 4.9865
 Frc consts  --     0.6233                 0.6024                 0.6957
 IR Inten    --     6.9356                 3.4295                 4.3890
 Raman Activ --     2.2626                 3.1996                 0.2516

                    34                     35                     36
                     A                      A                      A
 Frequencies --   511.7980               527.7720               563.7593
 Red. masses --     3.5285                 3.3671                 4.4349
 Frc consts  --     0.5446                 0.5526                 0.8305
 IR Inten    --    12.7460                 5.2305                 2.3750
 Raman Activ --     1.9721                 6.1340                 1.0522

                    37                     38                     39
                     A                      A                      A
 Frequencies --   587.5786               595.7050               614.7109
 Red. masses --     4.7010                 2.8983                 5.6033
 Frc consts  --     0.9563                 0.6060                 1.2475
 IR Inten    --    14.3220                38.9437                23.3524
 Raman Activ --     0.8346                 0.5264                 2.2899

                    40                     41                     42
                     A                      A                      A
 Frequencies --   629.2213               652.4105               667.4388
 Red. masses --     4.2114                 1.1065                 4.9176
 Frc consts  --     0.9824                 0.2775                 1.2907
 IR Inten    --    16.9757                97.6690                17.3487
 Raman Activ --     0.7498                 1.6367                 1.3562

                    43                     44                     45
                     A                      A                      A
 Frequencies --   691.0120               758.1465               778.9346
 Red. masses --     1.0672                 1.0847                 1.0580
 Frc consts  --     0.3002                 0.3673                 0.3782
 IR Inten    --   115.5424                93.7129                87.1752
 Raman Activ --     1.8367                 1.7733                 1.4884

                    46                     47                     48
                     A                      A                      A
 Frequencies --   836.7413               840.0856               844.8282
 Red. masses --     1.0827                 1.6554                 1.2914
 Frc consts  --     0.4466                 0.6884                 0.5430
 IR Inten    --    74.2908                10.9100                60.9765
 Raman Activ --     1.2835                 1.5877                 0.6894

                    49                     50                     51
                     A                      A                      A
 Frequencies --   861.8956               936.2661               957.1706
 Red. masses --     1.4740                 6.0320                 5.5924
 Frc consts  --     0.6452                 3.1154                 3.0187
 IR Inten    --    20.6238               134.4838                27.6784
 Raman Activ --     0.4200                 3.0595                 0.5903

                    52                     53                     54
                     A                      A                      A
 Frequencies --   979.5133               981.5508               987.2124
 Red. masses --     6.4332                 5.1334                 6.0948
 Frc consts  --     3.6366                 2.9140                 3.4997
 IR Inten    --    14.0131               198.6586               262.1532
 Raman Activ --     1.2747                 0.4577                 3.9269

                    55                     56                     57
                     A                      A                      A
 Frequencies --   999.4153              1007.4893              1019.1864
 Red. masses --     7.6466                 7.3883                 5.1072
 Frc consts  --     4.5000                 4.4185                 3.1257
 IR Inten    --   397.7064                17.0920               235.7332
 Raman Activ --     1.5789                 1.3139                 1.2443

                    58                     59                     60
                     A                      A                      A
 Frequencies --  1022.3342              1049.3903              1062.0214
 Red. masses --     5.9625                 5.2745                 3.1362
 Frc consts  --     3.6717                 3.4222                 2.0841
 IR Inten    --    60.5311               175.6988                10.9086
 Raman Activ --     3.7071                 4.0872                 7.4993

                    61                     62                     63
                     A                      A                      A
 Frequencies --  1064.7521              1070.7351              1079.6852
 Red. masses --     5.4169                 3.3248                 3.5544
 Frc consts  --     3.6182                 2.2458                 2.4413
 IR Inten    --     5.8107                20.6292                 3.8320
 Raman Activ --     1.7405                 0.7305                20.9297

                    64                     65                     66
                     A                      A                      A
 Frequencies --  1093.3472              1098.4730              1115.5886
 Red. masses --     2.9641                 2.3634                 2.6473
 Frc consts  --     2.0877                 1.6802                 1.9412
 IR Inten    --    60.5518                22.4739                14.3248
 Raman Activ --     4.8069                 2.2605                 9.1016

                    67                     68                     69
                     A                      A                      A
 Frequencies --  1120.6524              1129.8813              1133.7456
 Red. masses --     2.6697                 2.1140                 3.0210
 Frc consts  --     1.9754                 1.5901                 2.2878
 IR Inten    --    79.2711                77.5893                 5.6690
 Raman Activ --     2.8998                 5.2994                 9.9607

                    70                     71                     72
                     A                      A                      A
 Frequencies --  1142.1688              1153.7743              1161.6312
 Red. masses --     3.2677                 1.8902                 2.2018
 Frc consts  --     2.5116                 1.4825                 1.7505
 IR Inten    --     9.3883                12.4414                24.7070
 Raman Activ --     4.2819                 5.4551                 5.0870

                    73                     74                     75
                     A                      A                      A
 Frequencies --  1163.2544              1177.4488              1201.1125
 Red. masses --     1.7906                 2.1821                 1.7958
 Frc consts  --     1.4276                 1.7824                 1.5264
 IR Inten    --     3.4778                 7.4621                16.5800
 Raman Activ --     1.0294                 1.3787                 1.1083

                    76                     77                     78
                     A                      A                      A
 Frequencies --  1208.5145              1211.0333              1222.6634
 Red. masses --     1.4052                 1.3883                 1.3820
 Frc consts  --     1.2092                 1.1997                 1.2172
 IR Inten    --     4.9193                14.3256                 3.5207
 Raman Activ --     0.5737                 2.5261                 0.5693

                    79                     80                     81
                     A                      A                      A
 Frequencies --  1236.1109              1244.4944              1260.6982
 Red. masses --     1.3063                 1.2317                 1.2655
 Frc consts  --     1.1760                 1.1239                 1.1850
 IR Inten    --     4.6502                 6.3260                 6.6507
 Raman Activ --     0.4788                 2.7674                 0.6940

                    82                     83                     84
                     A                      A                      A
 Frequencies --  1276.5353              1279.5246              1294.7841
 Red. masses --     1.4436                 1.2157                 1.3184
 Frc consts  --     1.3860                 1.1727                 1.3022
 IR Inten    --    66.9426                18.9297                15.7117
 Raman Activ --     1.7203                 1.1347                 8.3385

                    85                     86                     87
                     A                      A                      A
 Frequencies --  1298.0460              1305.6412              1313.8262
 Red. masses --     1.3892                 1.2334                 1.2974
 Frc consts  --     1.3791                 1.2388                 1.3195
 IR Inten    --    49.9041                 5.5024                 5.1263
 Raman Activ --     5.1553                 1.8706                 4.7150

                    88                     89                     90
                     A                      A                      A
 Frequencies --  1321.0550              1327.9369              1333.0151
 Red. masses --     1.2884                 1.2866                 1.2020
 Frc consts  --     1.3248                 1.3367                 1.2584
 IR Inten    --     7.0046                27.9552                10.3970
 Raman Activ --     7.9237                 5.7071                 3.6783

                    91                     92                     93
                     A                      A                      A
 Frequencies --  1338.9667              1349.7498              1356.1700
 Red. masses --     1.3209                 1.1482                 1.1893
 Frc consts  --     1.3953                 1.2324                 1.2888
 IR Inten    --    36.7264                28.5553                 2.0806
 Raman Activ --     3.0565                 3.6444                11.0971

                    94                     95                     96
                     A                      A                      A
 Frequencies --  1368.4741              1368.9493              1377.2213
 Red. masses --     1.3850                 1.3773                 1.4726
 Frc consts  --     1.5281                 1.5207                 1.6456
 IR Inten    --    13.2908                12.8857                 6.7151
 Raman Activ --     5.8610                 0.2366                 4.5986

                    97                     98                     99
                     A                      A                      A
 Frequencies --  1396.9238              1398.8764              1414.3653
 Red. masses --     1.4272                 1.1428                 1.3576
 Frc consts  --     1.6409                 1.3176                 1.6001
 IR Inten    --     5.9974                16.4592                12.3170
 Raman Activ --     6.0568                 4.6978                 3.6453

                   100                    101                    102
                     A                      A                      A
 Frequencies --  1423.3822              1437.9218              1444.1476
 Red. masses --     1.4234                 1.4140                 1.1260
 Frc consts  --     1.6991                 1.7225                 1.3836
 IR Inten    --    46.8316                35.9037                 6.2766
 Raman Activ --     1.1151                 1.5336                 4.1925

                   103                    104                    105
                     A                      A                      A
 Frequencies --  1462.7924              1470.0167              1470.7721
 Red. masses --     1.0941                 1.3461                 1.2778
 Frc consts  --     1.3794                 1.7138                 1.6286
 IR Inten    --     7.3074                23.6937                 5.0036
 Raman Activ --     4.9048                 0.2108                 1.0573

                   106                    107                    108
                     A                      A                      A
 Frequencies --  1477.9580              1550.5010              3237.6687
 Red. masses --     1.3203                 1.2127                 1.0608
 Frc consts  --     1.6992                 1.7178                 6.5517
 IR Inten    --    51.6181                43.6038                 9.8570
 Raman Activ --     1.4745                 0.6470                95.2740

                   109                    110                    111
                     A                      A                      A
 Frequencies --  3244.9792              3256.5192              3261.4804
 Red. masses --     1.0778                 1.0608                 1.0751
 Frc consts  --     6.6867                 6.6281                 6.7381
 IR Inten    --    60.7677                82.5722               160.0704
 Raman Activ --    20.0409                17.0665               242.5590

                   112                    113                    114
                     A                      A                      A
 Frequencies --  3265.9211              3271.2752              3274.4618
 Red. masses --     1.0786                 1.0756                 1.0783
 Frc consts  --     6.7786                 6.7817                 6.8122
 IR Inten    --    34.5319                96.8980               201.9089
 Raman Activ --    65.2630               215.1176               118.0018

                   115                    116                    117
                     A                      A                      A
 Frequencies --  3277.8214              3280.3907              3283.3714
 Red. masses --     1.0790                 1.0837                 1.0835
 Frc consts  --     6.8305                 6.8707                 6.8818
 IR Inten    --   295.7353               106.4462               187.4030
 Raman Activ --    22.8364                44.9343               109.5178

                   118                    119                    120
                     A                      A                      A
 Frequencies --  3285.7994              3289.6945              3293.8976
 Red. masses --     1.0824                 1.0854                 1.0985
 Frc consts  --     6.8850                 6.9206                 7.0224
 IR Inten    --   211.5387                58.0336                17.9928
 Raman Activ --    56.2813                52.3215                30.1420

                   121                    122                    123
                     A                      A                      A
 Frequencies --  3301.3127              3303.8560              3309.7464
 Red. masses --     1.0889                 1.0873                 1.1027
 Frc consts  --     6.9922                 6.9929                 7.1172
 IR Inten    --    96.1861                37.8455                69.5481
 Raman Activ --    12.7858                17.6497                37.8613

                   124                    125                    126
                     A                      A                      A
 Frequencies --  3347.3474              3351.5047              3359.8277
 Red. masses --     1.0651                 1.0657                 1.0692
 Frc consts  --     7.0314                 7.0528                 7.1114
 IR Inten    --    36.1479                26.3966                62.2588
 Raman Activ --   101.9908               139.3133               150.0788

                   127                    128                    129
                     A                      A                      A
 Frequencies --  3362.0335              3876.2295              3876.5487
 Red. masses --     1.0677                 1.0675                 1.0676
 Frc consts  --     7.1103                 9.4499                 9.4525
 IR Inten    --    67.8665                89.4268                61.7373
 Raman Activ --   163.6230                91.9593               115.0566

 - Thermochemistry -
 -------------------
 Temperature   298.150 Kelvin.  Pressure   1.00000 Atm.
 Atom     1 has atomic number  8 and mass  15.99491

 Molecular mass:   342.11621 amu.
 Principal axes and moments of inertia in atomic units:
                           1         2         3
     Eigenvalues --  4428.64180********************
           X            0.99997  -0.00764  -0.00054
           Y            0.00764   0.99997   0.00103
           Z            0.00053  -0.00104   1.00000
 This molecule is an asymmetric top.
 Rotational symmetry number  1.
 Warning -- assumption of classical behavior for rotation
           may cause significant error
 Rotational temperatures (Kelvin)      0.01956     0.00691     0.00524
 Rotational constants (GHZ):           0.40752     0.14389     0.10911
    7 imaginary frequencies ignored.
 Zero-point vibrational energy     974581.0 (Joules/Mol)
                                  232.93044 (Kcal/Mol)
 Warning -- explicit consideration of  32 degrees of freedom as
           vibrations may cause significant error
 Vibrational temperatures:     56.71   103.40   118.07   150.26   158.97
          (Kelvin)            217.65   259.60   261.25   294.60   325.62
                              380.50   393.61   426.84   435.88   451.82
                              462.70   476.30   487.63   527.38   552.40
                              593.41   603.21   619.92   631.50   690.87
                              700.14   736.36   759.35   811.12   845.39
                              857.09   884.43   905.31   938.67   960.29
                              994.21  1090.80  1120.71  1203.88  1208.69
                             1215.52  1240.07  1347.08  1377.15  1409.30
                             1412.23  1420.38  1437.93  1449.55  1466.38
                             1470.91  1509.84  1528.01  1531.94  1540.55
                             1553.42  1573.08  1580.46  1605.08  1612.37
                             1625.65  1631.20  1643.32  1660.02  1671.33
                             1673.66  1694.08  1728.13  1738.78  1742.40
                             1759.14  1778.49  1790.55  1813.86  1836.65
                             1840.95  1862.90  1867.60  1878.52  1890.30
                             1900.70  1910.60  1917.91  1926.47  1941.99
                             1951.22  1968.93  1969.61  1981.51  2009.86
                             2012.67  2034.95  2047.93  2068.85  2077.80
                             2104.63  2115.02  2116.11  2126.45  2230.82
                             4658.28  4668.80  4685.40  4692.54  4698.93
                             4706.63  4711.21  4716.05  4719.74  4724.03
                             4727.53  4733.13  4739.18  4749.85  4753.51
                             4761.98  4816.08  4822.06  4834.04  4837.21
                             5577.02  5577.48

 Zero-point correction=                           0.371198 (Hartree/Particle)
 Thermal correction to Energy=                    0.389486
 Thermal correction to Enthalpy=                  0.390430
 Thermal correction to Gibbs Free Energy=         0.325713
 Sum of electronic and zero-point Energies=          -1297.627243
 Sum of electronic and thermal Energies=             -1297.608956
 Sum of electronic and thermal Enthalpies=           -1297.608012
 Sum of electronic and thermal Free Energies=        -1297.672728

                     E (Thermal)             CV                S
                      KCal/Mol        Cal/Mol-Kelvin    Cal/Mol-Kelvin
 Total                  244.406             75.778            136.208
 Electronic               0.000              0.000              0.000
 Translational            0.889              2.981             43.384
 Rotational               0.889              2.981             35.173
 Vibrational            242.628             69.817             57.650
 Vibration     1          0.594              1.981              5.288
 Vibration     2          0.598              1.967              4.102
 Vibration     3          0.600              1.961              3.841
 Vibration     4          0.605              1.946              3.370
 Vibration     5          0.606              1.941              3.260
 Vibration     6          0.619              1.901              2.656
 Vibration     7          0.629              1.866              2.324
 Vibration     8          0.630              1.865              2.312
 Vibration     9          0.640              1.833              2.090
 Vibration    10          0.650              1.801              1.908
 Vibration    11          0.671              1.738              1.632
 Vibration    12          0.676              1.722              1.574
 Vibration    13          0.690              1.680              1.436
 Vibration    14          0.694              1.668              1.401
 Vibration    15          0.702              1.647              1.341
 Vibration    16          0.707              1.632              1.302
 Vibration    17          0.713              1.613              1.255
 Vibration    18          0.719              1.598              1.217
 Vibration    19          0.739              1.541              1.094
 Vibration    20          0.753              1.504              1.024
 Vibration    21          0.776              1.443              0.918
 Vibration    22          0.782              1.428              0.895
 Vibration    23          0.792              1.403              0.856
 Vibration    24          0.799              1.385              0.830
 Vibration    25          0.837              1.294              0.710
 Vibration    26          0.843              1.280              0.692
 Vibration    27          0.867              1.224              0.629
 Vibration    28          0.883              1.189              0.592
 Vibration    29          0.920              1.110              0.516
 Vibration    30          0.945              1.058              0.472
 Vibration    31          0.953              1.041              0.457
 Vibration    32          0.974              1.001              0.425

 Normal termination of Gaussian 09 at Fri Feb 12 12:48:23 2016.
