 Gaussian 09, Revision B.01,
 Gaussian 09:  EM64L-G09RevB.01 12-Aug-2010

 -------------------------------------------------
 # freq=raman b3lyp/6-31+g(2d,p) geom=connectivity
 -------------------------------------------------

 -----------------
 483 6306/6306.com
 -----------------
 Symbolic Z-matrix:
 Charge =  0 Multiplicity = 1

                         Standard orientation:
 ---------------------------------------------------------------------
 Center     Atomic      Atomic             Coordinates (Angstroms)
 Number     Number       Type             X           Y           Z
 ---------------------------------------------------------------------
      1          8           0        5.048009   -0.399048   -0.346970
      2          6           0        3.747939   -0.107292    0.185278
      3          6           0        3.180264    1.220403   -0.290032
      4          8           0        4.143287    2.236614    0.026076
      5          1           0        5.047407    1.885755   -0.219612
      6          6           0        1.807686    1.606263    0.238089
      7          8           0        1.288594    2.821284   -0.320752
      8          1           0        0.326147    2.989603   -0.107483
      9          6           0        3.059008   -2.485338    0.198652
     10          8           0        4.200457   -3.185615   -0.315533
     11          1           0        4.119944   -4.145744   -0.045458
     12          6           0        2.681115   -1.089575   -0.269171
     13          8           0        1.376797   -0.875511    0.289685
     14          6           0        0.900307    0.427541   -0.074055
     15          8           0       -0.320685    0.513287    0.674543
     16          6           0       -1.512841    0.180081   -0.052397
     17          6           0       -1.997057   -1.204167    0.347340
     18          8           0       -0.986459   -2.194799    0.111839
     19          1           0       -0.165772   -1.741904    0.460668
     20          6           0       -3.350680   -1.545257   -0.253933
     21          8           0       -3.931141   -2.769190    0.222074
     22          1           0       -4.867275   -2.968994   -0.067681
     23          6           0       -2.273457    2.585851   -0.234445
     24          8           0       -1.185249    3.295328    0.376391
     25          1           0       -1.480308    4.240343    0.239466
     26          6           0       -2.563153    1.207567    0.335674
     27          8           0       -3.807108    0.851444   -0.284361
     28          6           0       -4.299683   -0.426379    0.144234
     29          8           0       -5.444175   -0.515871   -0.716354
     30          1           0       -6.234761   -0.638325   -0.185715
     31          1           0       -4.561722   -0.444577    1.181492
     32          1           0       -3.268522   -1.580612   -1.320188
     33          1           0       -2.142735   -1.174517    1.406962
     34          1           0       -1.327890    0.218815   -1.105579
     35          1           0       -2.672553    1.254320    1.399040
     36          1           0       -3.157305    3.180650   -0.134818
     37          1           0        5.652300   -0.593676    0.373136
     38          1           0        2.209344   -3.109659    0.016461
     39          1           0        3.187266   -2.428291    1.259404
     40          1           0        2.617333   -1.077037   -1.337195
     41          1           0        3.796293   -0.108146    1.254185
     42          1           0        3.105877    1.170107   -1.356258
     43          1           0        1.869472    1.718809    1.300358
     44          1           0        0.669768    0.434363   -1.118902
     45          1           0       -2.057619    2.477139   -1.276796
 ---------------------------------------------------------------------

 SCF Done:  E(RB3LYP) =  -1297.98631562     A.U. after   13 cycles

 The electronic state is 1-A.
 Alpha  occ. eigenvalues --  -19.19718 -19.19127 -19.18018 -19.17605 -19.17566
 Alpha  occ. eigenvalues --  -19.17564 -19.15946 -19.15800 -19.14181 -19.13749
 Alpha  occ. eigenvalues --  -19.13175 -10.30389 -10.30329 -10.25790 -10.25559
 Alpha  occ. eigenvalues --  -10.25547 -10.25352 -10.25237 -10.24958 -10.24624
 Alpha  occ. eigenvalues --  -10.24148 -10.23886 -10.23431  -1.10554  -1.09310
 Alpha  occ. eigenvalues --   -1.06765  -1.05554  -1.04313  -1.03082  -1.02285
 Alpha  occ. eigenvalues --   -1.02117  -1.01451  -1.00624  -0.99640  -0.82150
 Alpha  occ. eigenvalues --   -0.80817  -0.79618  -0.78248  -0.71721  -0.69775
 Alpha  occ. eigenvalues --   -0.67276  -0.64707  -0.63358  -0.62304  -0.61560
 Alpha  occ. eigenvalues --   -0.60350  -0.56825  -0.56304  -0.55149  -0.55083
 Alpha  occ. eigenvalues --   -0.54083  -0.53367  -0.52790  -0.51687  -0.50796
 Alpha  occ. eigenvalues --   -0.50682  -0.50339  -0.49405  -0.48992  -0.46762
 Alpha  occ. eigenvalues --   -0.46233  -0.45192  -0.44147  -0.43313  -0.43096
 Alpha  occ. eigenvalues --   -0.42705  -0.41639  -0.41402  -0.40170  -0.39816
 Alpha  occ. eigenvalues --   -0.39404  -0.38441  -0.37745  -0.36393  -0.35760
 Alpha  occ. eigenvalues --   -0.35273  -0.34601  -0.34258  -0.33928  -0.33704
 Alpha  occ. eigenvalues --   -0.32547  -0.31784  -0.30913  -0.30257  -0.29933
 Alpha  occ. eigenvalues --   -0.29717  -0.28222  -0.28059  -0.27299  -0.26495
 Alpha  occ. eigenvalues --   -0.26183
 Alpha virt. eigenvalues --   -0.02286  -0.01979  -0.01828  -0.00022   0.00243
 Alpha virt. eigenvalues --    0.00838   0.02027   0.02197   0.03165   0.03557
 Alpha virt. eigenvalues --    0.04021   0.04245   0.05071   0.05298   0.05762

 Mulliken atomic charges:
              1
     1  O   -0.536778
     2  C   -0.140023
     3  C    0.330344
     4  O   -0.577497
     5  H    0.345647
     6  C   -0.139543
     7  O   -0.600731
     8  H    0.445604
     9  C   -0.222508
    10  O   -0.536135
    11  H    0.335308
    12  C    0.196019
    13  O   -0.249755
    14  C    0.142745
    15  O   -0.224850
    16  C    0.393748
    17  C    0.081743
    18  O   -0.559440
    19  H    0.384032
    20  C    0.061147
    21  O   -0.555533
    22  H    0.340179
    23  C   -0.255192
    24  O   -0.555949
    25  H    0.357410
    26  C   -0.140833
    27  O   -0.216094
    28  C    0.143539
    29  O   -0.531173
    30  H    0.328661
    31  H    0.138945
    32  H    0.132763
    33  H    0.114953
    34  H    0.111225
    35  H    0.125409
    36  H    0.146916
    37  H    0.346724
    38  H    0.144313
    39  H    0.131958
    40  H    0.119395
    41  H    0.120995
    42  H    0.117274
    43  H    0.127583
    44  H    0.118925
    45  H    0.158531
 Sum of Mulliken atomic charges =   0.00000

 Dipole moment (field-independent basis, Debye):
    X=             -3.2308    Y=              0.2693    Z=              2.1749  Tot=              3.9039
 Quadrupole moment (field-independent basis, Debye-Ang):
   XX=           -115.6616   YY=           -138.7290   ZZ=           -138.9870
   XY=            -17.0217   XZ=              2.1152   YZ=             -2.1573

  Exact polarizability: 234.381   0.883 196.307   1.024  -1.091 143.064
 Approx polarizability: 275.543   0.013 256.569   1.428  -1.085 239.300

 ******    6 imaginary frequencies (negative Signs) ******

                     1                      2                      3
                     A                      A                      A
 Frequencies --  -298.8127              -239.9739              -237.9900
 Red. masses --     1.6969                 1.1962                 1.1839
 Frc consts  --     0.0893                 0.0406                 0.0395
 IR Inten    --    20.4941                51.5371               138.5470
 Raman Activ --     0.0894                 0.7744                 0.8148

                     4                      5                      6
                     A                      A                      A
 Frequencies --  -217.5577               -73.6000               -56.4178
 Red. masses --     1.8612                 6.8652                 5.9990
 Frc consts  --     0.0519                 0.0219                 0.0113
 IR Inten    --     1.3747                 2.4850                 0.0860
 Raman Activ --     0.0734                 0.0406                 0.0310

                     7                      8                      9
                     A                      A                      A
 Frequencies --    36.4500                57.3779                66.2296
 Red. masses --     6.9847                 6.6429                 6.8446
 Frc consts  --     0.0055                 0.0129                 0.0177
 IR Inten    --     0.7082                 1.5622                 1.4048
 Raman Activ --     0.0221                 0.0468                 0.0605

                    10                     11                     12
                     A                      A                      A
 Frequencies --    86.9233                99.6716               112.0085
 Red. masses --     6.5943                 6.1297                 5.4973
 Frc consts  --     0.0294                 0.0359                 0.0406
 IR Inten    --     0.3236                 3.7064                 2.4182
 Raman Activ --     0.2746                 0.0889                 0.0951

                    13                     14                     15
                     A                      A                      A
 Frequencies --   165.4189               183.1652               188.3432
 Red. masses --     6.1720                 6.5374                 6.4793
 Frc consts  --     0.0995                 0.1292                 0.1354
 IR Inten    --     4.5201                 1.8422                 0.1011
 Raman Activ --     0.4539                 0.8752                 0.1887

                    16                     17                     18
                     A                      A                      A
 Frequencies --   222.1046               234.6740               279.1572
 Red. masses --     6.9384                 6.0773                 4.2352
 Frc consts  --     0.2017                 0.1972                 0.1945
 IR Inten    --     0.3981                 1.5500                18.1496
 Raman Activ --     3.0450                 0.2614                 0.3246

                    19                     20                     21
                     A                      A                      A
 Frequencies --   284.8931               296.8315               309.7677
 Red. masses --     4.9234                 5.1693                 5.5623
 Frc consts  --     0.2354                 0.2684                 0.3145
 IR Inten    --     2.1797                 0.9214                 5.8833
 Raman Activ --     0.1123                 0.0200                 0.3953

                    22                     23                     24
                     A                      A                      A
 Frequencies --   315.9311               319.4233               327.2904
 Red. masses --     4.8638                 6.9078                 5.9050
 Frc consts  --     0.2860                 0.4153                 0.3727
 IR Inten    --     4.9018                 4.1301                 0.9008
 Raman Activ --     0.1852                 3.9605                 2.5689

                    25                     26                     27
                     A                      A                      A
 Frequencies --   352.0793               364.0847               378.1840
 Red. masses --     6.2976                 4.6558                 7.1865
 Frc consts  --     0.4599                 0.3636                 0.6056
 IR Inten    --    15.8572                 4.3098                 3.6047
 Raman Activ --     1.6440                 0.3775                 1.5597

                    28                     29                     30
                     A                      A                      A
 Frequencies --   408.1960               419.1644               437.7744
 Red. masses --     4.4526                 5.7945                 4.9243
 Frc consts  --     0.4371                 0.5998                 0.5560
 IR Inten    --    17.1990                 0.4756                 1.6229
 Raman Activ --     1.7417                 6.8405                 3.2818

                    31                     32                     33
                     A                      A                      A
 Frequencies --   444.0981               493.5068               497.5581
 Red. masses --     4.8817                 5.4317                 3.9814
 Frc consts  --     0.5673                 0.7794                 0.5807
 IR Inten    --     3.4269                 3.9807                10.7987
 Raman Activ --     2.7928                 0.6781                 3.1373

                    34                     35                     36
                     A                      A                      A
 Frequencies --   515.0682               536.0490               568.1252
 Red. masses --     3.4339                 3.3937                 3.7976
 Frc consts  --     0.5367                 0.5746                 0.7222
 IR Inten    --    13.4251                 7.8857                 8.6562
 Raman Activ --     2.9111                 4.7016                 1.0037

                    37                     38                     39
                     A                      A                      A
 Frequencies --   588.3052               597.7098               626.2739
 Red. masses --     2.7614                 5.7367                 4.1256
 Frc consts  --     0.5631                 1.2075                 0.9534
 IR Inten    --    46.5959                 9.2926                 1.4445
 Raman Activ --     0.4668                 0.3115                 0.1295

                    40                     41                     42
                     A                      A                      A
 Frequencies --   642.8138               669.1504               702.2940
 Red. masses --     5.1808                 1.0506                 5.0205
 Frc consts  --     1.2613                 0.2772                 1.4589
 IR Inten    --    49.4321                88.2912                17.8214
 Raman Activ --     1.7901                 2.1058                 0.8435

                    43                     44                     45
                     A                      A                      A
 Frequencies --   706.6414               766.5402               772.9101
 Red. masses --     1.0845                 1.1202                 1.0604
 Frc consts  --     0.3191                 0.3878                 0.3732
 IR Inten    --    99.7262                99.6381                96.0455
 Raman Activ --     1.9855                 1.4253                 1.7055

                    46                     47                     48
                     A                      A                      A
 Frequencies --   811.9505               835.0133               858.3018
 Red. masses --     1.1049                 1.1659                 1.7796
 Frc consts  --     0.4292                 0.4789                 0.7724
 IR Inten    --   124.5875                29.6907                 1.6514
 Raman Activ --     3.7452                 0.3313                 0.6687

                    49                     50                     51
                     A                      A                      A
 Frequencies --   875.1135               930.7853               952.7034
 Red. masses --     1.4755                 5.4847                 5.9692
 Frc consts  --     0.6658                 2.7996                 3.1922
 IR Inten    --    19.2925               134.8210                78.1336
 Raman Activ --     0.2810                 4.2534                 0.5523

                    52                     53                     54
                     A                      A                      A
 Frequencies --   972.2175               976.3844               989.7885
 Red. masses --     6.3511                 5.2985                 4.6188
 Frc consts  --     3.5369                 2.9761                 2.6660
 IR Inten    --   123.6588                49.4719                84.6317
 Raman Activ --     1.3917                 1.7664                 0.7345

                    55                     56                     57
                     A                      A                      A
 Frequencies --   995.7634              1015.4239              1027.2784
 Red. masses --     5.6871                 5.8724                 6.0812
 Frc consts  --     3.3224                 3.5675                 3.7811
 IR Inten    --   310.4692                23.3751               143.9868
 Raman Activ --     3.3453                 2.9593                 3.1876

                    58                     59                     60
                     A                      A                      A
 Frequencies --  1035.8657              1057.8934              1064.8286
 Red. masses --     5.7387                 5.5365                 5.3640
 Frc consts  --     3.6280                 3.6506                 3.5834
 IR Inten    --   187.2631                93.3015               104.0960
 Raman Activ --     3.4805                 1.3659                 2.3445

                    61                     62                     63
                     A                      A                      A
 Frequencies --  1069.1267              1070.4849              1080.7991
 Red. masses --     3.5644                 3.2086                 4.4384
 Frc consts  --     2.4004                 2.1664                 3.0547
 IR Inten    --    45.3877                54.4665                28.5271
 Raman Activ --    13.5586                 9.9627                15.9326

                    64                     65                     66
                     A                      A                      A
 Frequencies --  1093.5204              1101.0621              1106.4088
 Red. masses --     2.7077                 2.4380                 2.9917
 Frc consts  --     1.9077                 1.7415                 2.1578
 IR Inten    --   121.7283                55.9732                52.3887
 Raman Activ --     2.8412                 2.6971                10.1982

                    67                     68                     69
                     A                      A                      A
 Frequencies --  1109.7330              1127.2575              1133.1607
 Red. masses --     2.6350                 2.4352                 2.3957
 Frc consts  --     1.9119                 1.8232                 1.8124
 IR Inten    --     7.9487                30.0218                58.3810
 Raman Activ --     7.7310                 3.5753                 9.0515

                    70                     71                     72
                     A                      A                      A
 Frequencies --  1137.9433              1140.5683              1147.4243
 Red. masses --     2.1489                 2.2057                 1.8700
 Frc consts  --     1.6395                 1.6906                 1.4506
 IR Inten    --    18.0297                13.9345                 5.1001
 Raman Activ --     3.8204                 2.5045                 0.9494

                    73                     74                     75
                     A                      A                      A
 Frequencies --  1155.5750              1165.4702              1174.3108
 Red. masses --     2.3399                 1.7692                 1.8564
 Frc consts  --     1.8410                 1.4159                 1.5083
 IR Inten    --    28.0904                 3.7477                 1.9274
 Raman Activ --     5.6006                 1.7390                 1.4633

                    76                     77                     78
                     A                      A                      A
 Frequencies --  1199.0527              1212.1545              1215.9878
 Red. masses --     1.3787                 1.3556                 1.3466
 Frc consts  --     1.1679                 1.1735                 1.1731
 IR Inten    --    18.0990                 4.5436                 7.2905
 Raman Activ --     5.0212                 0.3623                 1.7477

                    79                     80                     81
                     A                      A                      A
 Frequencies --  1232.6382              1243.0873              1256.2218
 Red. masses --     1.2612                 1.3419                 1.1931
 Frc consts  --     1.1291                 1.2217                 1.1093
 IR Inten    --     9.2849                29.6831                21.7520
 Raman Activ --     2.0938                 2.1134                 1.0358

                    82                     83                     84
                     A                      A                      A
 Frequencies --  1271.9058              1274.4777              1279.4996
 Red. masses --     1.3579                 1.2329                 1.2338
 Frc consts  --     1.2942                 1.1799                 1.1901
 IR Inten    --    27.6529                12.5959                 3.5024
 Raman Activ --     0.9304                 4.6506                 3.5195

                    85                     86                     87
                     A                      A                      A
 Frequencies --  1287.6014              1299.6092              1301.2006
 Red. masses --     1.2584                 1.3468                 1.2842
 Frc consts  --     1.2292                 1.3402                 1.2810
 IR Inten    --     5.3070                11.9950                28.2964
 Raman Activ --     2.1302                 3.5555                 2.7057

                    88                     89                     90
                     A                      A                      A
 Frequencies --  1315.6588              1319.5135              1326.0415
 Red. masses --     1.3235                 1.2119                 1.2357
 Frc consts  --     1.3498                 1.2432                 1.2802
 IR Inten    --    36.8017                 2.9250                 6.7758
 Raman Activ --     1.8568                12.2536                12.0587

                    91                     92                     93
                     A                      A                      A
 Frequencies --  1338.7920              1341.5147              1345.9921
 Red. masses --     1.2754                 1.2627                 1.1436
 Frc consts  --     1.3468                 1.3389                 1.2207
 IR Inten    --    41.3642                12.9565                28.6055
 Raman Activ --     2.5385                 3.5308                 1.4713

                    94                     95                     96
                     A                      A                      A
 Frequencies --  1355.8938              1362.0274              1366.2193
 Red. masses --     1.4644                 1.3635                 1.3854
 Frc consts  --     1.5862                 1.4903                 1.5236
 IR Inten    --    29.6366                 5.2750                10.9608
 Raman Activ --     4.4800                 3.6735                 4.3024

                    97                     98                     99
                     A                      A                      A
 Frequencies --  1370.8238              1381.1522              1393.7344
 Red. masses --     1.4371                 1.5903                 1.4443
 Frc consts  --     1.5911                 1.7873                 1.6529
 IR Inten    --    20.2591                21.5114                 7.2828
 Raman Activ --     3.2520                 1.7449                 5.4092

                   100                    101                    102
                     A                      A                      A
 Frequencies --  1401.5724              1438.6723              1455.4445
 Red. masses --     1.4970                 1.3287                 1.4502
 Frc consts  --     1.7326                 1.6203                 1.8100
 IR Inten    --     4.6151                33.6323                45.1329
 Raman Activ --     7.6587                 0.7360                 1.4861

                   103                    104                    105
                     A                      A                      A
 Frequencies --  1472.8302              1477.8961              1481.9395
 Red. masses --     1.1908                 1.0712                 1.2209
 Frc consts  --     1.5219                 1.3785                 1.5798
 IR Inten    --    13.0137                 5.5159                 7.6588
 Raman Activ --     4.7969                 4.8483                 0.9170

                   106                    107                    108
                     A                      A                      A
 Frequencies --  1510.5193              1532.5876              3205.0473
 Red. masses --     1.2540                 1.2458                 1.0708
 Frc consts  --     1.6857                 1.7241                 6.4806
 IR Inten    --    37.0970                51.0082              1216.8103
 Raman Activ --     0.8286                 2.3388               189.7171

                   109                    110                    111
                     A                      A                      A
 Frequencies --  3251.5632              3261.5690              3264.2916
 Red. masses --     1.0583                 1.0806                 1.0585
 Frc consts  --     6.5921                 6.7725                 6.6457
 IR Inten    --    32.5381                48.5267                 9.3883
 Raman Activ --    75.1555                37.5464               177.9903

                   112                    113                    114
                     A                      A                      A
 Frequencies --  3267.8895              3276.2598              3280.2868
 Red. masses --     1.0815                 1.0836                 1.0827
 Frc consts  --     6.8047                 6.8529                 6.8643
 IR Inten    --    22.8217                 3.4987                14.5352
 Raman Activ --    35.0089                 3.9462               129.2447

                   115                    116                    117
                     A                      A                      A
 Frequencies --  3284.7142              3288.6730              3291.2224
 Red. masses --     1.0840                 1.0870                 1.0850
 Frc consts  --     6.8909                 6.9267                 6.9247
 IR Inten    --     5.8345                 0.1502                 1.8735
 Raman Activ --    96.3701                 8.8132               119.8405

                   118                    119                    120
                     A                      A                      A
 Frequencies --  3295.8377              3298.0598              3304.9288
 Red. masses --     1.0878                 1.0909                 1.0857
 Frc consts  --     6.9622                 6.9909                 6.9867
 IR Inten    --     1.8075                38.8913               166.7020
 Raman Activ --    30.0830                17.6908                19.2813

                   121                    122                    123
                     A                      A                      A
 Frequencies --  3305.6607              3312.1935              3322.5059
 Red. masses --     1.0941                 1.0717                 1.1067
 Frc consts  --     7.0441                 6.9270                 7.1981
 IR Inten    --    49.4592               546.7305                42.4020
 Raman Activ --     8.5388               147.2672                30.1198

                   124                    125                    126
                     A                      A                      A
 Frequencies --  3354.1637              3358.5994              3368.0676
 Red. masses --     1.0654                 1.0674                 1.0670
 Frc consts  --     7.0619                 7.0940                 7.1314
 IR Inten    --    37.0160                46.5346                50.1878
 Raman Activ --    96.2986               163.3003               173.1867

                   127                    128                    129
                     A                      A                      A
 Frequencies --  3382.0449              3890.0011              3892.7424
 Red. masses --     1.0666                 1.0674                 1.0677
 Frc consts  --     7.1878                 9.5166                 9.5322
 IR Inten    --    50.1483                61.2961                89.1364
 Raman Activ --   133.7439               123.4790                89.3374

 - Thermochemistry -
 -------------------
 Temperature   298.150 Kelvin.  Pressure   1.00000 Atm.
 Atom     1 has atomic number  8 and mass  15.99491

 Molecular mass:   342.11621 amu.
 Principal axes and moments of inertia in atomic units:
                           1         2         3
     Eigenvalues --  4366.98468********************
           X            0.99997  -0.00775   0.00041
           Y            0.00775   0.99996  -0.00361
           Z           -0.00038   0.00361   0.99999
 This molecule is an asymmetric top.
 Rotational symmetry number  1.
 Warning -- assumption of classical behavior for rotation
           may cause significant error
 Rotational temperatures (Kelvin)      0.01983     0.00707     0.00534
 Rotational constants (GHZ):           0.41327     0.14736     0.11125
    6 imaginary frequencies ignored.
 Zero-point vibrational energy     975572.2 (Joules/Mol)
                                  233.16734 (Kcal/Mol)
 Warning -- explicit consideration of  32 degrees of freedom as
           vibrations may cause significant error
 Vibrational temperatures:     52.44    82.55    95.29   125.06   143.40
          (Kelvin)            161.16   238.00   263.53   270.98   319.56
                              337.64   401.64   409.90   427.07   445.69
                              454.55   459.58   470.90   506.56   523.84
                              544.12   587.30   603.08   629.86   638.96
                              710.05   715.87   741.07   771.25   817.40
                              846.44   859.97   901.07   924.86   962.76
                             1010.44  1016.70  1102.88  1112.04  1168.21
                             1201.40  1234.90  1259.09  1339.19  1370.73
                             1398.80  1404.80  1424.08  1432.68  1460.97
                             1478.02  1490.38  1522.07  1532.05  1538.23
                             1540.19  1555.03  1573.33  1584.18  1591.87
                             1596.66  1621.87  1630.36  1637.24  1641.02
                             1650.89  1662.61  1676.85  1689.57  1725.17
                             1744.02  1749.53  1773.49  1788.52  1807.42
                             1829.99  1833.69  1840.91  1852.57  1869.85
                             1872.14  1892.94  1898.48  1907.88  1926.22
                             1930.14  1936.58  1950.83  1959.65  1965.68
                             1972.31  1987.17  2005.27  2016.55  2069.93
                             2094.06  2119.07  2126.36  2132.18  2173.30
                             2205.05  4611.34  4678.27  4692.66  4696.58
                             4701.76  4713.80  4719.60  4725.97  4731.66
                             4735.33  4741.97  4745.17  4755.05  4756.10
                             4765.50  4780.34  4825.89  4832.27  4845.89
                             4866.00  5596.84  5600.78

 Zero-point correction=                           0.371576 (Hartree/Particle)
 Thermal correction to Energy=                    0.390510
 Thermal correction to Enthalpy=                  0.391454
 Thermal correction to Gibbs Free Energy=         0.324905
 Sum of electronic and zero-point Energies=          -1297.614740
 Sum of electronic and thermal Energies=             -1297.595805
 Sum of electronic and thermal Enthalpies=           -1297.594861
 Sum of electronic and thermal Free Energies=        -1297.661410

                     E (Thermal)             CV                S
                      KCal/Mol        Cal/Mol-Kelvin    Cal/Mol-Kelvin
 Total                  245.049             77.475            140.065
 Electronic               0.000              0.000              0.000
 Translational            0.889              2.981             43.384
 Rotational               0.889              2.981             35.116
 Vibrational            243.271             71.514             61.564
 Vibration     1          0.594              1.982              5.443
 Vibration     2          0.596              1.975              4.545
 Vibration     3          0.598              1.970              4.262
 Vibration     4          0.601              1.958              3.728
 Vibration     5          0.604              1.949              3.461
 Vibration     6          0.607              1.940              3.234
 Vibration     7          0.624              1.885              2.487
 Vibration     8          0.631              1.863              2.296
 Vibration     9          0.633              1.856              2.244
 Vibration    10          0.648              1.807              1.942
 Vibration    11          0.654              1.788              1.843
 Vibration    12          0.679              1.712              1.539
 Vibration    13          0.683              1.702              1.504
 Vibration    14          0.690              1.680              1.435
 Vibration    15          0.699              1.655              1.364
 Vibration    16          0.703              1.643              1.331
 Vibration    17          0.705              1.636              1.313
 Vibration    18          0.711              1.621              1.273
 Vibration    19          0.729              1.571              1.157
 Vibration    20          0.738              1.546              1.105
 Vibration    21          0.748              1.517              1.046
 Vibration    22          0.773              1.452              0.933
 Vibration    23          0.782              1.429              0.895
 Vibration    24          0.798              1.388              0.834
 Vibration    25          0.804              1.374              0.814
 Vibration    26          0.849              1.264              0.675
 Vibration    27          0.853              1.255              0.664
 Vibration    28          0.870              1.217              0.622
 Vibration    29          0.891              1.170              0.574
 Vibration    30          0.924              1.100              0.508
 Vibration    31          0.946              1.057              0.470
 Vibration    32          0.956              1.037              0.454

 Normal termination of Gaussian 09 at Tue Mar 29 21:52:27 2016.
