 Gaussian 09, Revision B.01,
 Gaussian 09:  EM64L-G09RevB.01 12-Aug-2010

 -------------------------------------------------
 # freq=raman b3lyp/6-31+g(2d,p) geom=connectivity
 -------------------------------------------------

 -----------------
 450 5281/5281.com
 -----------------
 Symbolic Z-matrix:
 Charge =  0 Multiplicity = 1

                         Standard orientation:
 ---------------------------------------------------------------------
 Center     Atomic      Atomic             Coordinates (Angstroms)
 Number     Number       Type             X           Y           Z
 ---------------------------------------------------------------------
      1          8           0        4.982438   -0.496171   -0.782849
      2          6           0        3.881656   -0.114581    0.054827
      3          6           0        3.397780    1.281279   -0.302903
      4          8           0        4.224170    2.358833    0.160510
      5          1           0        5.059004    2.213889   -0.370924
      6          6           0        2.030473    1.500721    0.322580
      7          8           0        1.392494    2.739726   -0.021628
      8          1           0        2.034204    3.322280   -0.520433
      9          6           0        3.157814   -2.354549    0.618937
     10          8           0        2.440683   -3.535139    0.232043
     11          1           0        2.829328   -4.266077    0.792107
     12          6           0        2.809053   -1.150342   -0.240312
     13          8           0        1.438817   -0.837983    0.048507
     14          6           0        1.002093    0.507329   -0.193799
     15          8           0       -0.131939    0.703153    0.663012
     16          6           0       -1.279036    0.298707   -0.100375
     17          6           0       -1.750066   -1.106330    0.237274
     18          8           0       -0.829099   -2.146545   -0.119922
     19          1           0        0.071977   -1.736095   -0.262604
     20          6           0       -3.100164   -1.498985   -0.342817
     21          8           0       -3.519480   -2.868134   -0.261633
     22          1           0       -2.902988   -3.326727   -0.901839
     23          6           0       -2.013054    2.578261   -0.066497
     24          8           0       -3.082692    3.534390   -0.096935
     25          1           0       -3.354626    3.722480    0.846054
     26          6           0       -2.417104    1.182762    0.381043
     27          8           0       -3.682357    0.801919   -0.178806
     28          6           0       -4.128493   -0.512186    0.186893
     29          8           0       -5.473963   -0.783819   -0.229592
     30          1           0       -6.087833   -0.392603    0.396278
     31          1           0        5.799957   -0.156663   -0.411369
     32          1           0        2.926928   -2.129178    1.639133
     33          1           0        4.207374   -2.545458    0.536012
     34          1           0        2.883134   -1.431680   -1.270002
     35          1           0        4.166470   -0.157740    1.085321
     36          1           0        3.305923    1.351077   -1.366665
     37          1           0        2.105165    1.419124    1.386847
     38          1           0        0.760281    0.674867   -1.222565
     39          1           0       -1.594829    2.509151   -1.048949
     40          1           0       -1.256863    2.939691    0.598667
     41          1           0       -2.471435    1.149300    1.449139
     42          1           0       -1.113484    0.415488   -1.151020
     43          1           0       -1.853238   -1.141335    1.301713
     44          1           0       -3.024161   -1.296369   -1.390706
     45          1           0       -4.108575   -0.571781    1.255046
 ---------------------------------------------------------------------

 SCF Done:  E(RB3LYP) =  -1297.98044267     A.U. after   14 cycles

 The electronic state is 1-A.
 Alpha  occ. eigenvalues --  -19.19969 -19.19874 -19.19364 -19.18617 -19.17482
 Alpha  occ. eigenvalues --  -19.16515 -19.15457 -19.15409 -19.14305 -19.14193
 Alpha  occ. eigenvalues --  -19.12311 -10.31262 -10.28268 -10.28117 -10.27435
 Alpha  occ. eigenvalues --  -10.27104 -10.26361 -10.24856 -10.24695 -10.23842
 Alpha  occ. eigenvalues --  -10.22722 -10.22597 -10.22107  -1.11110  -1.08329
 Alpha  occ. eigenvalues --   -1.06628  -1.06314  -1.05120  -1.03688  -1.02997
 Alpha  occ. eigenvalues --   -1.01552  -1.01131  -1.00140  -0.98956  -0.83479
 Alpha  occ. eigenvalues --   -0.82079  -0.78874  -0.77287  -0.71940  -0.69068
 Alpha  occ. eigenvalues --   -0.68255  -0.65286  -0.64081  -0.62798  -0.61212
 Alpha  occ. eigenvalues --   -0.59653  -0.57940  -0.56847  -0.55502  -0.54136
 Alpha  occ. eigenvalues --   -0.53150  -0.53088  -0.52773  -0.51924  -0.50854
 Alpha  occ. eigenvalues --   -0.49650  -0.49274  -0.49098  -0.47716  -0.46848
 Alpha  occ. eigenvalues --   -0.46091  -0.44806  -0.44283  -0.44227  -0.42935
 Alpha  occ. eigenvalues --   -0.42626  -0.41924  -0.41380  -0.40688  -0.40198
 Alpha  occ. eigenvalues --   -0.39620  -0.38005  -0.37961  -0.37181  -0.36392
 Alpha  occ. eigenvalues --   -0.36196  -0.34619  -0.34469  -0.33967  -0.33823
 Alpha  occ. eigenvalues --   -0.31962  -0.31610  -0.31096  -0.30377  -0.29965
 Alpha  occ. eigenvalues --   -0.29828  -0.29139  -0.27784  -0.27017  -0.26157
 Alpha  occ. eigenvalues --   -0.24773
 Alpha virt. eigenvalues --   -0.04411  -0.01860  -0.01062  -0.00588   0.00332
 Alpha virt. eigenvalues --    0.00870   0.01345   0.01868   0.02034   0.02940
 Alpha virt. eigenvalues --    0.03983   0.04266   0.04840   0.05273   0.05597

 Mulliken atomic charges:
              1
     1  O   -0.543910
     2  C   -0.006961
     3  C    0.059219
     4  O   -0.523541
     5  H    0.324042
     6  C   -0.128701
     7  O   -0.523485
     8  H    0.345074
     9  C   -0.390411
    10  O   -0.510870
    11  H    0.329902
    12  C    0.323115
    13  O   -0.324967
    14  C    0.157873
    15  O   -0.114346
    16  C    0.115760
    17  C    0.381243
    18  O   -0.625314
    19  H    0.400707
    20  C   -0.126111
    21  O   -0.490864
    22  H    0.341390
    23  C   -0.124805
    24  O   -0.515181
    25  H    0.316737
    26  C   -0.147493
    27  O   -0.251066
    28  C    0.302722
    29  O   -0.516535
    30  H    0.321565
    31  H    0.331503
    32  H    0.147988
    33  H    0.153522
    34  H    0.131489
    35  H    0.134998
    36  H    0.133161
    37  H    0.144087
    38  H    0.127337
    39  H    0.134544
    40  H    0.175587
    41  H    0.115307
    42  H    0.102400
    43  H    0.106155
    44  H    0.107683
    45  H    0.099449
 Sum of Mulliken atomic charges =   0.00000

 Dipole moment (field-independent basis, Debye):
    X=              9.5057    Y=              1.5115    Z=              1.9975  Tot=              9.8303
 Quadrupole moment (field-independent basis, Debye-Ang):
   XX=           -119.2896   YY=           -151.0202   ZZ=           -131.9237
   XY=             -5.7371   XZ=            -11.2654   YZ=             -2.0905

  Exact polarizability: 227.335   2.941 198.820  -3.045   0.507 144.825
 Approx polarizability: 270.255   2.544 258.793  -4.615   2.903 243.540

 ******    6 imaginary frequencies (negative Signs) ******

                     1                      2                      3
                     A                      A                      A
 Frequencies --  -195.0756              -173.2697              -153.2684
 Red. masses --     2.0630                 1.7301                 1.1523
 Frc consts  --     0.0463                 0.0306                 0.0159
 IR Inten    --     2.7641                 7.7433                93.5879
 Raman Activ --     0.0229                 0.1718                 1.0825

                     4                      5                      6
                     A                      A                      A
 Frequencies --   -77.7484               -60.1961               -38.2476
 Red. masses --     6.8979                 5.9016                 5.2800
 Frc consts  --     0.0246                 0.0126                 0.0046
 IR Inten    --     2.6164                 0.5969                 5.0716
 Raman Activ --     0.0589                 0.0618                 0.0609

                     7                      8                      9
                     A                      A                      A
 Frequencies --    30.6576                57.2391                69.4907
 Red. masses --     6.5177                 5.9332                 5.8226
 Frc consts  --     0.0036                 0.0115                 0.0166
 IR Inten    --     1.4398                 1.5854                 4.2559
 Raman Activ --     0.0518                 0.0398                 0.2400

                    10                     11                     12
                     A                      A                      A
 Frequencies --    71.3621                79.6134               124.4580
 Red. masses --     5.5453                 1.4123                 5.9095
 Frc consts  --     0.0166                 0.0053                 0.0539
 IR Inten    --     0.6585               103.2214                 4.4949
 Raman Activ --     0.1453                 0.8989                 0.4954

                    13                     14                     15
                     A                      A                      A
 Frequencies --   145.1227               178.9681               194.1638
 Red. masses --     5.5221                 6.3763                 5.5871
 Frc consts  --     0.0685                 0.1203                 0.1241
 IR Inten    --     0.9586                 2.1848                 2.9557
 Raman Activ --     0.1154                 0.4550                 0.6158

                    16                     17                     18
                     A                      A                      A
 Frequencies --   201.4428               219.7781               262.4171
 Red. masses --     5.9566                 6.3904                 3.4596
 Frc consts  --     0.1424                 0.1819                 0.1404
 IR Inten    --     5.0566                 1.5822                10.1964
 Raman Activ --     0.4849                 2.6303                 0.1244

                    19                     20                     21
                     A                      A                      A
 Frequencies --   276.8648               280.7506               301.7438
 Red. masses --     5.4618                 4.9580                 5.4323
 Frc consts  --     0.2467                 0.2302                 0.2914
 IR Inten    --     8.2400                 6.8901                 3.3288
 Raman Activ --     0.4634                 0.2067                 0.2365

                    22                     23                     24
                     A                      A                      A
 Frequencies --   309.4903               331.4093               345.2301
 Red. masses --     4.5425                 5.1488                 6.1481
 Frc consts  --     0.2564                 0.3332                 0.4317
 IR Inten    --     2.4940                 2.8596                 2.7171
 Raman Activ --     0.9139                 2.3890                 3.4413

                    25                     26                     27
                     A                      A                      A
 Frequencies --   358.8280               370.4839               397.5067
 Red. masses --     6.1349                 4.1454                 5.3559
 Frc consts  --     0.4654                 0.3352                 0.4986
 IR Inten    --     2.3851                 2.3461                 3.1240
 Raman Activ --     4.2254                 0.5770                 1.0042

                    28                     29                     30
                     A                      A                      A
 Frequencies --   405.7314               431.0079               439.4482
 Red. masses --     6.5996                 4.4390                 7.3263
 Frc consts  --     0.6401                 0.4859                 0.8336
 IR Inten    --     0.0967                 7.5906                 1.0725
 Raman Activ --     5.4476                 0.9002                 0.4195

                    31                     32                     33
                     A                      A                      A
 Frequencies --   463.2944               484.5772               504.4433
 Red. masses --     5.3511                 5.2255                 3.6268
 Frc consts  --     0.6767                 0.7229                 0.5438
 IR Inten    --     4.6934                14.9915                 7.3960
 Raman Activ --     2.2492                 4.5659                 0.9362

                    34                     35                     36
                     A                      A                      A
 Frequencies --   530.1369               555.5211               567.5906
 Red. masses --     3.5756                 4.8111                 4.3794
 Frc consts  --     0.5921                 0.8748                 0.8313
 IR Inten    --    23.2423                 4.0450                11.5385
 Raman Activ --     5.1536                 0.6015                 4.2455

                    37                     38                     39
                     A                      A                      A
 Frequencies --   590.6118               600.8519               630.3343
 Red. masses --     3.6985                 2.9925                 3.1923
 Frc consts  --     0.7601                 0.6365                 0.7473
 IR Inten    --     4.8740                17.4338                 3.7759
 Raman Activ --     0.9869                 0.5123                 0.4862

                    40                     41                     42
                     A                      A                      A
 Frequencies --   662.6323               677.2285               684.0675
 Red. masses --     2.2025                 1.5992                 2.6451
 Frc consts  --     0.5698                 0.4321                 0.7293
 IR Inten    --    31.0469                11.6765                32.5895
 Raman Activ --     0.2566                 1.6153                 0.6692

                    43                     44                     45
                     A                      A                      A
 Frequencies --   705.4330               710.0455               717.6710
 Red. masses --     1.1027                 1.1043                 1.1363
 Frc consts  --     0.3233                 0.3280                 0.3448
 IR Inten    --   130.1334               102.3350                90.7823
 Raman Activ --     1.5539                 1.9058                 1.3081

                    46                     47                     48
                     A                      A                      A
 Frequencies --   759.9374               781.4381               838.5161
 Red. masses --     1.1083                 1.1218                 2.3164
 Frc consts  --     0.3771                 0.4036                 0.9596
 IR Inten    --   111.1460                86.9809                 1.6455
 Raman Activ --     0.7856                 1.8653                 2.1665

                    49                     50                     51
                     A                      A                      A
 Frequencies --   854.0774               945.2814               958.5295
 Red. masses --     2.6641                 6.5527                 6.9866
 Frc consts  --     1.1450                 3.4498                 3.7821
 IR Inten    --    14.9948               106.7867               370.3729
 Raman Activ --     5.6504                 2.2207                 1.4477

                    52                     53                     54
                     A                      A                      A
 Frequencies --   974.3328               975.0479               983.8016
 Red. masses --     3.8587                 5.8980                 4.5177
 Frc consts  --     2.1583                 3.3038                 2.5762
 IR Inten    --    39.9942                46.1030                20.6316
 Raman Activ --     2.1474                 1.4706                 2.2998

                    55                     56                     57
                     A                      A                      A
 Frequencies --   993.1482              1002.9279              1012.1594
 Red. masses --     6.1530                 6.3832                 3.4885
 Frc consts  --     3.5757                 3.7829                 2.1056
 IR Inten    --   221.1935                71.2580               221.1187
 Raman Activ --     1.9619                 2.5393                 0.6098

                    58                     59                     60
                     A                      A                      A
 Frequencies --  1022.0651              1043.8655              1061.3694
 Red. masses --     4.2813                 3.0336                 3.5350
 Frc consts  --     2.6350                 1.9476                 2.3463
 IR Inten    --   264.4691               158.4711                11.2323
 Raman Activ --     2.9446                 7.5151                16.7549

                    61                     62                     63
                     A                      A                      A
 Frequencies --  1065.0044              1068.3281              1078.4296
 Red. masses --     4.8248                 4.7529                 5.6410
 Frc consts  --     3.2243                 3.1961                 3.8654
 IR Inten    --    26.6795                15.5714               106.6504
 Raman Activ --     3.9966                 7.2417                 5.4077

                    64                     65                     66
                     A                      A                      A
 Frequencies --  1091.6250              1107.0008              1112.8978
 Red. masses --     2.5422                 2.1763                 2.9059
 Frc consts  --     1.7849                 1.5713                 2.1205
 IR Inten    --    59.6842                16.7163                27.1055
 Raman Activ --     4.8034                 8.6573                 4.4352

                    67                     68                     69
                     A                      A                      A
 Frequencies --  1115.4053              1122.4855              1131.9139
 Red. masses --     2.1830                 2.2013                 2.0896
 Frc consts  --     1.6002                 1.6342                 1.5774
 IR Inten    --     5.2979                20.1116                33.5213
 Raman Activ --     3.3128                 1.1737                 1.4467

                    70                     71                     72
                     A                      A                      A
 Frequencies --  1141.3109              1144.7456              1146.8414
 Red. masses --     3.3700                 2.6924                 2.9580
 Frc consts  --     2.5863                 2.0788                 2.2922
 IR Inten    --     3.8901                36.2948                20.9654
 Raman Activ --     6.1405                 3.6554                 1.7757

                    73                     74                     75
                     A                      A                      A
 Frequencies --  1161.0303              1174.2532              1181.2987
 Red. masses --     1.7550                 2.2129                 1.6523
 Frc consts  --     1.3939                 1.7978                 1.3585
 IR Inten    --    18.3172                53.5815                 5.8286
 Raman Activ --     0.7378                 1.2477                 2.3206

                    76                     77                     78
                     A                      A                      A
 Frequencies --  1193.1294              1204.4615              1226.4952
 Red. masses --     1.5001                 1.6070                 1.3386
 Frc consts  --     1.2582                 1.3736                 1.1864
 IR Inten    --     6.4634                 9.1554                 5.0407
 Raman Activ --     1.7145                 4.3232                 0.3521

                    79                     80                     81
                     A                      A                      A
 Frequencies --  1243.2690              1253.2755              1262.4091
 Red. masses --     1.2116                 1.1999                 1.1872
 Frc consts  --     1.1034                 1.1104                 1.1147
 IR Inten    --     6.6451                 2.5474                14.0701
 Raman Activ --     0.9280                 0.8006                 6.2319

                    82                     83                     84
                     A                      A                      A
 Frequencies --  1266.0860              1273.8302              1294.7813
 Red. masses --     1.2870                 1.2612                 1.2044
 Frc consts  --     1.2155                 1.2058                 1.1896
 IR Inten    --    20.7446                 2.4859                 9.7230
 Raman Activ --     3.7519                 1.4195                 2.1259

                    85                     86                     87
                     A                      A                      A
 Frequencies --  1296.5551              1298.7268              1308.6539
 Red. masses --     1.2875                 1.3448                 1.3340
 Frc consts  --     1.2752                 1.3365                 1.3461
 IR Inten    --     3.8466                22.9789                 1.1712
 Raman Activ --     1.6682                 2.9953                 1.2634

                    88                     89                     90
                     A                      A                      A
 Frequencies --  1317.1068              1322.0321              1330.6948
 Red. masses --     1.4719                 1.3938                 1.2212
 Frc consts  --     1.5044                 1.4352                 1.2741
 IR Inten    --    14.4891                 2.7821                58.2479
 Raman Activ --    10.3224                 2.8186                 2.1789

                    91                     92                     93
                     A                      A                      A
 Frequencies --  1335.1494              1336.4040              1345.0077
 Red. masses --     1.2139                 1.3131                 1.3294
 Frc consts  --     1.2750                 1.3817                 1.4170
 IR Inten    --    21.8004                 9.4603                19.1331
 Raman Activ --     3.9412                 2.6162                 6.0418

                    94                     95                     96
                     A                      A                      A
 Frequencies --  1356.2561              1377.1303              1380.0748
 Red. masses --     1.4483                 1.1777                 1.2538
 Frc consts  --     1.5697                 1.3160                 1.4070
 IR Inten    --    37.6824                25.9711                 1.0758
 Raman Activ --     2.3984                 3.7142                 0.3858

                    97                     98                     99
                     A                      A                      A
 Frequencies --  1382.0385              1393.3918              1409.7462
 Red. masses --     1.5761                 1.2834                 1.3590
 Frc consts  --     1.7737                 1.4681                 1.5912
 IR Inten    --    11.8294                12.1171                 7.2686
 Raman Activ --     3.7408                 9.9964                 3.4685

                   100                    101                    102
                     A                      A                      A
 Frequencies --  1447.4624              1453.8918              1456.0044
 Red. masses --     1.4566                 1.0735                 1.1037
 Frc consts  --     1.7980                 1.3370                 1.3786
 IR Inten    --    65.3696                22.9688                 8.7285
 Raman Activ --     1.7566                 5.2323                 3.5418

                   103                    104                    105
                     A                      A                      A
 Frequencies --  1458.5605              1469.2066              1477.9883
 Red. masses --     1.1754                 1.3551                 1.3260
 Frc consts  --     1.4733                 1.7233                 1.7066
 IR Inten    --    56.9904                22.7170                23.8533
 Raman Activ --     4.8094                 2.7678                 2.4093

                   106                    107                    108
                     A                      A                      A
 Frequencies --  1490.1030              1534.8080              3249.9101
 Red. masses --     1.3675                 1.2011                 1.0746
 Frc consts  --     1.7890                 1.6670                 6.6870
 IR Inten    --    33.7046                48.3045               425.9830
 Raman Activ --     2.5239                 1.0904               122.3684

                   109                    110                    111
                     A                      A                      A
 Frequencies --  3255.6380              3259.9989              3265.2083
 Red. masses --     1.0813                 1.0568                 1.0757
 Frc consts  --     6.7528                 6.6175                 6.7571
 IR Inten    --     5.5631                36.8466               367.5662
 Raman Activ --    87.3642                80.9704               100.9337

                   112                    113                    114
                     A                      A                      A
 Frequencies --  3269.9029              3272.3228              3277.1751
 Red. masses --     1.0596                 1.0845                 1.0828
 Frc consts  --     6.6751                 6.8423                 6.8518
 IR Inten    --    34.4414                 4.0039                32.1176
 Raman Activ --    44.8575                53.6049               147.9357

                   115                    116                    117
                     A                      A                      A
 Frequencies --  3278.3450              3285.9653              3287.1723
 Red. masses --     1.0820                 1.0854                 1.0861
 Frc consts  --     6.8518                 6.9049                 6.9147
 IR Inten    --    94.5176                19.0975                37.1806
 Raman Activ --    10.0687                10.4236               109.0232

                   118                    119                    120
                     A                      A                      A
 Frequencies --  3295.4404              3298.8155              3307.4597
 Red. masses --     1.0857                 1.0855                 1.0868
 Frc consts  --     6.9469                 6.9599                 7.0050
 IR Inten    --    24.8342                10.9914                64.0531
 Raman Activ --    46.3999                79.9648                 0.8871

                   121                    122                    123
                     A                      A                      A
 Frequencies --  3317.8437              3335.3266              3363.4236
 Red. masses --     1.1062                 1.1048                 1.0652
 Frc consts  --     7.1744                 7.2411                 7.0998
 IR Inten    --    30.5547                32.9802                22.6244
 Raman Activ --    46.8323                40.3121               132.3113

                   124                    125                    126
                     A                      A                      A
 Frequencies --  3372.0527              3375.6951              3375.9357
 Red. masses --     1.0668                 1.0657                 1.0700
 Frc consts  --     7.1470                 7.1554                 7.1850
 IR Inten    --    35.5596                50.7492                 5.7375
 Raman Activ --    81.3686                39.6452                95.2511

                   127                    128                    129
                     A                      A                      A
 Frequencies --  3377.0623              3883.0890              3886.5023
 Red. masses --     1.0664                 1.0670                 1.0671
 Frc consts  --     7.1653                 9.4793                 9.4971
 IR Inten    --    39.4979                50.3620                61.3550
 Raman Activ --   159.8478               118.1691               134.0351

 - Thermochemistry -
 -------------------
 Temperature   298.150 Kelvin.  Pressure   1.00000 Atm.
 Atom     1 has atomic number  8 and mass  15.99491

 Molecular mass:   342.11621 amu.
 Principal axes and moments of inertia in atomic units:
                           1         2         3
     Eigenvalues --  4606.36912********************
           X            0.99998  -0.00594  -0.00157
           Y            0.00593   0.99998  -0.00286
           Z            0.00159   0.00285   0.99999
 This molecule is an asymmetric top.
 Rotational symmetry number  1.
 Warning -- assumption of classical behavior for rotation
           may cause significant error
 Rotational temperatures (Kelvin)      0.01880     0.00738     0.00544
 Rotational constants (GHZ):           0.39179     0.15379     0.11330
    6 imaginary frequencies ignored.
 Zero-point vibrational energy     975565.0 (Joules/Mol)
                                  233.16563 (Kcal/Mol)
 Warning -- explicit consideration of  32 degrees of freedom as
           vibrations may cause significant error
 Vibrational temperatures:     44.11    82.35    99.98   102.67   114.55
          (Kelvin)            179.07   208.80   257.49   279.36   289.83
                              316.21   377.56   398.35   403.94   434.14
                              445.29   476.82   496.71   516.27   533.04
                              571.92   583.76   620.12   632.27   666.58
                              697.20   725.78   762.75   799.27   816.64
                              849.76   864.49   906.91   953.38   974.38
                              984.22  1014.96  1021.60  1032.57  1093.38
                             1124.31  1206.44  1228.83  1360.05  1379.11
                             1401.85  1402.87  1415.47  1428.92  1442.99
                             1456.27  1470.52  1501.89  1527.07  1532.30
                             1537.08  1551.62  1570.60  1592.73  1601.21
                             1604.82  1615.00  1628.57  1642.09  1647.03
                             1650.05  1670.46  1689.49  1699.62  1716.64
                             1732.95  1764.65  1788.78  1803.18  1816.32
                             1821.61  1832.76  1862.90  1865.45  1868.58
                             1882.86  1895.02  1902.11  1914.57  1920.98
                             1922.78  1935.16  1951.35  1981.38  1985.62
                             1988.44  2004.78  2028.31  2082.57  2091.82
                             2094.86  2098.54  2113.86  2126.49  2143.92
                             2208.24  4675.89  4684.13  4690.41  4697.90
                             4704.66  4708.14  4715.12  4716.80  4727.77
                             4729.50  4741.40  4746.25  4758.69  4773.63
                             4798.79  4839.21  4851.63  4856.87  4857.21
                             4858.83  5586.89  5591.80

 Zero-point correction=                           0.371573 (Hartree/Particle)
 Thermal correction to Energy=                    0.390670
 Thermal correction to Enthalpy=                  0.391614
 Thermal correction to Gibbs Free Energy=         0.324362
 Sum of electronic and zero-point Energies=          -1297.608870
 Sum of electronic and thermal Energies=             -1297.589773
 Sum of electronic and thermal Enthalpies=           -1297.588828
 Sum of electronic and thermal Free Energies=        -1297.656081

                     E (Thermal)             CV                S
                      KCal/Mol        Cal/Mol-Kelvin    Cal/Mol-Kelvin
 Total                  245.149             77.760            141.545
 Electronic               0.000              0.000              0.000
 Translational            0.889              2.981             43.384
 Rotational               0.889              2.981             35.109
 Vibrational            243.372             71.799             63.052
 Vibration     1          0.594              1.984              5.786
 Vibration     2          0.596              1.975              4.550
 Vibration     3          0.598              1.969              4.168
 Vibration     4          0.598              1.968              4.115
 Vibration     5          0.600              1.963              3.900
 Vibration     6          0.610              1.929              3.030
 Vibration     7          0.617              1.908              2.735
 Vibration     8          0.629              1.868              2.339
 Vibration     9          0.635              1.848              2.188
 Vibration    10          0.638              1.838              2.120
 Vibration    11          0.647              1.811              1.961
 Vibration    12          0.670              1.742              1.646
 Vibration    13          0.678              1.716              1.553
 Vibration    14          0.680              1.709              1.529
 Vibration    15          0.694              1.670              1.407
 Vibration    16          0.699              1.656              1.365
 Vibration    17          0.714              1.613              1.253
 Vibration    18          0.724              1.585              1.188
 Vibration    19          0.734              1.557              1.127
 Vibration    20          0.742              1.533              1.078
 Vibration    21          0.764              1.475              0.972
 Vibration    22          0.771              1.458              0.942
 Vibration    23          0.792              1.403              0.855
 Vibration    24          0.799              1.384              0.828
 Vibration    25          0.821              1.331              0.757
 Vibration    26          0.841              1.284              0.698
 Vibration    27          0.860              1.240              0.647
 Vibration    28          0.885              1.183              0.587
 Vibration    29          0.911              1.128              0.533
 Vibration    30          0.924              1.101              0.509
 Vibration    31          0.948              1.052              0.466
 Vibration    32          0.959              1.030              0.448

 Normal termination of Gaussian 09 at Mon Mar 28 10:32:56 2016.
