 Gaussian 09, Revision B.01,
 Gaussian 09:  EM64L-G09RevB.01 12-Aug-2010

 -------------------------------------------------
 # freq=raman b3lyp/6-31+g(2d,p) geom=connectivity
 -------------------------------------------------

 -----------------
 300 8972/8972.com
 -----------------
 Symbolic Z-matrix:
 Charge =  0 Multiplicity = 1

                         Standard orientation:
 ---------------------------------------------------------------------
 Center     Atomic      Atomic             Coordinates (Angstroms)
 Number     Number       Type             X           Y           Z
 ---------------------------------------------------------------------
      1          8           0        5.075653   -0.533936   -0.223205
      2          6           0        3.754394   -0.157045    0.192297
      3          6           0        3.310117    1.231072   -0.236417
      4          8           0        4.282096    2.229558    0.106977
      5          1           0        5.231430    1.980085   -0.084536
      6          6           0        1.921689    1.613507    0.249877
      7          8           0        1.236913    2.793855   -0.193066
      8          1           0        0.323887    2.884131    0.205580
      9          6           0        2.923050   -2.538059    0.179618
     10          8           0        4.030995   -3.233098   -0.412772
     11          1           0        4.105248   -4.209330   -0.211581
     12          6           0        2.681511   -1.115301   -0.298765
     13          8           0        1.422659   -0.828363    0.327615
     14          6           0        1.001811    0.464271   -0.130410
     15          8           0       -0.249448    0.638063    0.550572
     16          6           0       -1.501399    0.223051   -0.014449
     17          6           0       -1.994935   -1.178365    0.307027
     18          8           0       -1.138156   -2.204394   -0.214759
     19          1           0       -0.244033   -1.908396    0.122309
     20          6           0       -3.405136   -1.523035   -0.144416
     21          8           0       -3.829334   -2.672312    0.601521
     22          1           0       -4.530245   -3.064865    0.004753
     23          6           0       -2.279823    2.617197   -0.343815
     24          8           0       -1.185275    3.342782    0.233926
     25          1           0       -1.483002    4.290116    0.351889
     26          6           0       -2.592571    1.250270    0.243103
     27          8           0       -3.841369    0.881613   -0.359044
     28          6           0       -4.348558   -0.364943    0.138630
     29          8           0       -5.532256   -0.641101   -0.624511
     30          1           0        5.589812   -0.795979    0.543981
     31          1           0        2.036474   -3.105912   -0.011238
     32          1           0        3.078785   -2.508980    1.237825
     33          1           0        2.593548   -1.080716   -1.364582
     34          1           0        3.740114   -0.180792    1.261938
     35          1           0        3.259876    1.213584   -1.305094
     36          1           0        1.962997    1.655328    1.318261
     37          1           0        0.846216    0.448833   -1.188924
     38          1           0       -6.240510   -0.904548   -0.032419
     39          1           0       -4.573784   -0.299055    1.182580
     40          1           0       -3.407657   -1.747219   -1.190664
     41          1           0       -1.979655   -1.271521    1.372855
     42          1           0       -1.346464    0.229659   -1.073152
     43          1           0       -2.732247    1.349658    1.299281
     44          1           0       -3.158075    3.221640   -0.253137
     45          1           0       -2.073440    2.487214   -1.385645
 ---------------------------------------------------------------------

 SCF Done:  E(RB3LYP) =  -1297.98624303     A.U. after   13 cycles

 The electronic state is 1-A.
 Alpha  occ. eigenvalues --  -19.18994 -19.18454 -19.18088 -19.17625 -19.17339
 Alpha  occ. eigenvalues --  -19.16885 -19.16746 -19.15354 -19.14616 -19.14478
 Alpha  occ. eigenvalues --  -19.12470 -10.30274 -10.30017 -10.26053 -10.25395
 Alpha  occ. eigenvalues --  -10.25339 -10.25208 -10.25154 -10.24599 -10.24502
 Alpha  occ. eigenvalues --  -10.24272 -10.23963 -10.23796  -1.09861  -1.08947
 Alpha  occ. eigenvalues --   -1.05963  -1.04855  -1.04081  -1.03728  -1.02842
 Alpha  occ. eigenvalues --   -1.01638  -1.01289  -1.01116  -0.99338  -0.81915
 Alpha  occ. eigenvalues --   -0.80668  -0.79118  -0.78099  -0.71810  -0.69709
 Alpha  occ. eigenvalues --   -0.67390  -0.64627  -0.63363  -0.62258  -0.61096
 Alpha  occ. eigenvalues --   -0.60225  -0.56577  -0.56042  -0.55017  -0.54726
 Alpha  occ. eigenvalues --   -0.54113  -0.53164  -0.52808  -0.52316  -0.50930
 Alpha  occ. eigenvalues --   -0.50535  -0.49657  -0.49424  -0.48419  -0.46425
 Alpha  occ. eigenvalues --   -0.45738  -0.44920  -0.44657  -0.43181  -0.42958
 Alpha  occ. eigenvalues --   -0.42573  -0.41577  -0.41266  -0.40006  -0.39584
 Alpha  occ. eigenvalues --   -0.38853  -0.38409  -0.37720  -0.36032  -0.35530
 Alpha  occ. eigenvalues --   -0.34995  -0.34735  -0.33791  -0.33457  -0.32771
 Alpha  occ. eigenvalues --   -0.32202  -0.31744  -0.31197  -0.30552  -0.29955
 Alpha  occ. eigenvalues --   -0.29375  -0.28371  -0.28143  -0.26830  -0.26494
 Alpha  occ. eigenvalues --   -0.26192
 Alpha virt. eigenvalues --   -0.01959  -0.01766  -0.01508   0.00079   0.00332
 Alpha virt. eigenvalues --    0.01049   0.02075   0.02218   0.02665   0.03453
 Alpha virt. eigenvalues --    0.03768   0.04358   0.04944   0.05502   0.05606

 Mulliken atomic charges:
              1
     1  O   -0.531775
     2  C    0.005614
     3  C    0.238586
     4  O   -0.576046
     5  H    0.344803
     6  C   -0.169431
     7  O   -0.572962
     8  H    0.440594
     9  C   -0.137748
    10  O   -0.554519
    11  H    0.340394
    12  C    0.078774
    13  O   -0.240991
    14  C    0.244677
    15  O   -0.266823
    16  C    0.298469
    17  C    0.123286
    18  O   -0.533509
    19  H    0.367245
    20  C   -0.019270
    21  O   -0.516366
    22  H    0.333601
    23  C   -0.261058
    24  O   -0.556934
    25  H    0.361589
    26  C   -0.120933
    27  O   -0.250293
    28  C    0.186370
    29  O   -0.548267
    30  H    0.340336
    31  H    0.142177
    32  H    0.135422
    33  H    0.119575
    34  H    0.113294
    35  H    0.113075
    36  H    0.125900
    37  H    0.129129
    38  H    0.336085
    39  H    0.133842
    40  H    0.143069
    41  H    0.123980
    42  H    0.108810
    43  H    0.120009
    44  H    0.145994
    45  H    0.162226
 Sum of Mulliken atomic charges =   0.00000

 Dipole moment (field-independent basis, Debye):
    X=             -2.4598    Y=             -0.6928    Z=              2.3758  Tot=              3.4893
 Quadrupole moment (field-independent basis, Debye-Ang):
   XX=           -118.9206   YY=           -133.3250   ZZ=           -139.3207
   XY=            -15.4048   XZ=              2.2600   YZ=              0.2197

  Exact polarizability: 234.434   0.790 197.944   0.944   0.128 144.043
 Approx polarizability: 274.355   0.084 257.028   1.562   1.295 240.923

 ******    7 imaginary frequencies (negative Signs) ******

                     1                      2                      3
                     A                      A                      A
 Frequencies --  -280.4026              -275.4628              -234.8638
 Red. masses --     1.3696                 1.1805                 1.5122
 Frc consts  --     0.0634                 0.0528                 0.0491
 IR Inten    --    70.9718               134.5326                27.6268
 Raman Activ --     0.3837                 1.2044                 0.4337

                     4                      5                      6
                     A                      A                      A
 Frequencies --  -225.2583               -82.6074               -57.9008
 Red. masses --     1.7988                 7.0759                 6.2133
 Frc consts  --     0.0538                 0.0284                 0.0123
 IR Inten    --     1.2901                 1.4439                 0.2729
 Raman Activ --     0.0268                 0.0247                 0.0196

                     7                      8                      9
                     A                      A                      A
 Frequencies --   -14.9550                42.2755                63.0359
 Red. masses --     6.6181                 6.2610                 6.1633
 Frc consts  --     0.0009                 0.0066                 0.0144
 IR Inten    --     0.0768                 1.2008                 2.5437
 Raman Activ --     0.0248                 0.0410                 0.1481

                    10                     11                     12
                     A                      A                      A
 Frequencies --    76.6284                95.1323               122.8827
 Red. masses --     7.1548                 6.9355                 5.3750
 Frc consts  --     0.0248                 0.0370                 0.0478
 IR Inten    --     1.6675                 1.9239                 1.4903
 Raman Activ --     0.0869                 0.0817                 0.0835

                    13                     14                     15
                     A                      A                      A
 Frequencies --   166.5134               174.3028               192.2404
 Red. masses --     6.4665                 5.5003                 6.9853
 Frc consts  --     0.1056                 0.0985                 0.1521
 IR Inten    --     1.9150                 5.9929                 0.7218
 Raman Activ --     0.9447                 0.1356                 0.6332

                    16                     17                     18
                     A                      A                      A
 Frequencies --   210.6267               235.7109               266.1990
 Red. masses --     7.0624                 5.9263                 4.9951
 Frc consts  --     0.1846                 0.1940                 0.2085
 IR Inten    --     0.1651                 2.5360                 6.5981
 Raman Activ --     2.8168                 0.5953                 0.2956

                    19                     20                     21
                     A                      A                      A
 Frequencies --   285.4269               289.2586               296.8823
 Red. masses --     5.5865                 4.4393                 5.0035
 Frc consts  --     0.2682                 0.2188                 0.2598
 IR Inten    --     2.1309                10.6294                 6.6235
 Raman Activ --     0.4437                 0.2200                 0.2042

                    22                     23                     24
                     A                      A                      A
 Frequencies --   299.8421               322.5251               328.4276
 Red. masses --     5.0373                 5.8565                 6.6810
 Frc consts  --     0.2668                 0.3589                 0.4246
 IR Inten    --     5.9845                 1.4001                 4.8751
 Raman Activ --     0.3507                 2.5599                 3.7694

                    25                     26                     27
                     A                      A                      A
 Frequencies --   350.7276               364.0737               383.4457
 Red. masses --     5.2185                 5.7424                 6.2251
 Frc consts  --     0.3782                 0.4485                 0.5393
 IR Inten    --     9.3713                 2.9302                 5.3153
 Raman Activ --     1.1045                 0.7399                 0.6982

                    28                     29                     30
                     A                      A                      A
 Frequencies --   401.4444               425.7540               434.2989
 Red. masses --     4.4125                 5.3083                 5.7501
 Frc consts  --     0.4190                 0.5669                 0.6390
 IR Inten    --    21.2913                 1.0383                 5.3862
 Raman Activ --     2.5827                 6.8840                 0.7947

                    31                     32                     33
                     A                      A                      A
 Frequencies --   444.3151               479.1964               488.9004
 Red. masses --     5.1090                 4.2306                 4.0662
 Frc consts  --     0.5943                 0.5724                 0.5726
 IR Inten    --     2.7655                 0.3950                 9.6333
 Raman Activ --     5.0952                 4.4999                 0.5001

                    34                     35                     36
                     A                      A                      A
 Frequencies --   508.3240               522.5618               562.9791
 Red. masses --     4.1149                 3.1476                 3.5243
 Frc consts  --     0.6265                 0.5064                 0.6581
 IR Inten    --    12.1793                 5.7593                29.9136
 Raman Activ --     0.4863                 5.0969                 1.5391

                    37                     38                     39
                     A                      A                      A
 Frequencies --   578.2324               598.9162               612.2767
 Red. masses --     2.9949                 5.7288                 4.0222
 Frc consts  --     0.5900                 1.2107                 0.8884
 IR Inten    --    24.6251                 7.9733                 6.5450
 Raman Activ --     0.3890                 1.2319                 0.6995

                    40                     41                     42
                     A                      A                      A
 Frequencies --   623.4513               639.3882               673.8767
 Red. masses --     4.1388                 1.1137                 1.2230
 Frc consts  --     0.9478                 0.2683                 0.3272
 IR Inten    --    32.2594               124.5575                99.2492
 Raman Activ --     0.6616                 2.4260                 1.2737

                    43                     44                     45
                     A                      A                      A
 Frequencies --   685.6334               698.3910               752.5872
 Red. masses --     3.4677                 1.0505                 1.1153
 Frc consts  --     0.9605                 0.3019                 0.3722
 IR Inten    --    21.1839                98.7270                74.6370
 Raman Activ --     1.9534                 2.1319                 1.2027

                    46                     47                     48
                     A                      A                      A
 Frequencies --   810.8637               827.4096               857.2041
 Red. masses --     1.1329                 1.0885                 1.7844
 Frc consts  --     0.4389                 0.4391                 0.7725
 IR Inten    --    64.7060                99.2276                 0.9036
 Raman Activ --     0.8120                 1.7616                 0.5209

                    49                     50                     51
                     A                      A                      A
 Frequencies --   866.1343               924.5499               959.0880
 Red. masses --     1.5651                 6.0533                 4.3830
 Frc consts  --     0.6918                 3.0486                 2.3754
 IR Inten    --     9.5250               113.6701                99.2156
 Raman Activ --     0.7825                 2.5956                 0.2988

                    52                     53                     54
                     A                      A                      A
 Frequencies --   963.6849               982.1202               994.5778
 Red. masses --     4.8018                 5.1994                 6.3454
 Frc consts  --     2.6274                 2.9548                 3.6981
 IR Inten    --    78.1181                30.8192                69.4182
 Raman Activ --     1.0334                 2.6241                 2.6046

                    55                     56                     57
                     A                      A                      A
 Frequencies --  1001.3281              1010.9413              1025.3863
 Red. masses --     7.2302                 5.9679                 6.0165
 Frc consts  --     4.2712                 3.5935                 3.7271
 IR Inten    --   418.8821               107.5707               112.2477
 Raman Activ --     1.6876                 3.7483                 1.6098

                    58                     59                     60
                     A                      A                      A
 Frequencies --  1040.0562              1048.3087              1060.9490
 Red. masses --     6.4652                 6.3110                 6.0862
 Frc consts  --     4.1204                 4.0863                 4.0363
 IR Inten    --   280.5566               115.2264               144.2424
 Raman Activ --     3.8516                14.3687                 1.5521

                    61                     62                     63
                     A                      A                      A
 Frequencies --  1067.5217              1073.9837              1075.5242
 Red. masses --     5.6947                 4.4867                 3.6564
 Frc consts  --     3.8236                 3.0491                 2.4920
 IR Inten    --    52.3552                 7.6476                25.1000
 Raman Activ --     2.5213                 7.1575                19.6146

                    64                     65                     66
                     A                      A                      A
 Frequencies --  1095.5123              1100.9741              1109.0388
 Red. masses --     3.1896                 3.1342                 2.2599
 Frc consts  --     2.2554                 2.2384                 1.6377
 IR Inten    --    73.4712                55.7574                47.1816
 Raman Activ --     2.5928                 7.8376                 2.2118

                    67                     68                     69
                     A                      A                      A
 Frequencies --  1119.7586              1127.0168              1128.0569
 Red. masses --     2.1599                 2.5552                 2.3397
 Frc consts  --     1.5956                 1.9122                 1.7541
 IR Inten    --    33.1448                 9.1663                49.1068
 Raman Activ --     1.7012                 1.2522                10.6229

                    70                     71                     72
                     A                      A                      A
 Frequencies --  1135.4129              1139.4844              1154.8318
 Red. masses --     2.5195                 2.0838                 2.1102
 Frc consts  --     1.9137                 1.5941                 1.6581
 IR Inten    --    18.1611                25.8490                 7.7971
 Raman Activ --     3.3068                 9.9123                 1.0681

                    73                     74                     75
                     A                      A                      A
 Frequencies --  1166.6127              1168.3712              1176.7635
 Red. masses --     1.5427                 1.8186                 1.7548
 Frc consts  --     1.2370                 1.4627                 1.4318
 IR Inten    --     1.3821                 3.3250                 2.8292
 Raman Activ --     1.7745                 2.7260                 3.5371

                    76                     77                     78
                     A                      A                      A
 Frequencies --  1204.9968              1211.0385              1232.0250
 Red. masses --     1.2886                 1.3517                 1.2298
 Frc consts  --     1.1024                 1.1680                 1.0998
 IR Inten    --    18.5656                13.5524                 8.4172
 Raman Activ --     2.3394                 2.2772                 2.1525

                    79                     80                     81
                     A                      A                      A
 Frequencies --  1233.2360              1236.1036              1245.7789
 Red. masses --     1.2606                 1.2223                 1.2121
 Frc consts  --     1.1296                 1.1004                 1.1084
 IR Inten    --    15.3170                 3.9724                13.9599
 Raman Activ --     3.4142                 1.3932                 0.6512

                    82                     83                     84
                     A                      A                      A
 Frequencies --  1263.8121              1282.1188              1285.8852
 Red. masses --     1.1300                 1.3768                 1.1957
 Frc consts  --     1.0634                 1.3334                 1.1649
 IR Inten    --    24.5026                20.7352                32.4184
 Raman Activ --     5.8132                 1.7192                 1.4541

                    85                     86                     87
                     A                      A                      A
 Frequencies --  1288.5168              1289.2742              1293.5003
 Red. masses --     1.3080                 1.2047                 1.2209
 Frc consts  --     1.2795                 1.1798                 1.2036
 IR Inten    --     2.1732                 2.5126                37.6306
 Raman Activ --     1.2146                 3.7641                 5.2667

                    88                     89                     90
                     A                      A                      A
 Frequencies --  1302.9143              1310.3442              1326.1471
 Red. masses --     1.4485                 1.3045                 1.2791
 Frc consts  --     1.4488                 1.3196                 1.3254
 IR Inten    --    48.9089                45.6699                 1.3462
 Raman Activ --     2.2692                 7.1166                 9.9438

                    91                     92                     93
                     A                      A                      A
 Frequencies --  1335.0302              1339.9310              1348.6683
 Red. masses --     1.3602                 1.3032                 1.2728
 Frc consts  --     1.4283                 1.3786                 1.3640
 IR Inten    --    15.3047                19.2841                15.4535
 Raman Activ --     3.9647                 4.3408                 2.2054

                    94                     95                     96
                     A                      A                      A
 Frequencies --  1359.2808              1361.5885              1368.3495
 Red. masses --     1.3657                 1.4948                 1.6538
 Frc consts  --     1.4867                 1.6327                 1.8244
 IR Inten    --    28.4757                 7.7132                29.3076
 Raman Activ --     1.6671                 4.7032                 8.7235

                    97                     98                     99
                     A                      A                      A
 Frequencies --  1369.4853              1374.4279              1393.2790
 Red. masses --     1.4775                 1.3433                 1.3537
 Frc consts  --     1.6326                 1.4951                 1.5483
 IR Inten    --    46.8017                14.4182                 2.3389
 Raman Activ --     5.0308                 1.0058                 8.0437

                   100                    101                    102
                     A                      A                      A
 Frequencies --  1404.8033              1417.9154              1426.4473
 Red. masses --     1.3957                 1.4975                 1.4543
 Frc consts  --     1.6228                 1.7738                 1.7435
 IR Inten    --    10.4109                43.0112                 6.5197
 Raman Activ --     2.8601                 2.3839                 1.5374

                   103                    104                    105
                     A                      A                      A
 Frequencies --  1470.3663              1471.7007              1475.2203
 Red. masses --     1.1704                 1.1802                 1.0936
 Frc consts  --     1.4909                 1.5061                 1.4023
 IR Inten    --    17.9955                29.4075                 7.4667
 Raman Activ --     1.1103                 5.7090                 3.5611

                   106                    107                    108
                     A                      A                      A
 Frequencies --  1477.1488              1531.5403              3225.4750
 Red. masses --     1.2477                 1.2636                 1.0696
 Frc consts  --     1.6040                 1.7463                 6.5563
 IR Inten    --    20.0085                40.6461              1165.5158
 Raman Activ --     0.6953                 1.3933               169.2694

                   109                    110                    111
                     A                      A                      A
 Frequencies --  3255.8902              3260.4909              3260.8255
 Red. masses --     1.0578                 1.0792                 1.0795
 Frc consts  --     6.6066                 6.7598                 6.7625
 IR Inten    --    31.7043                 2.7807                38.3356
 Raman Activ --    57.0581                22.2211               190.7612

                   112                    113                    114
                     A                      A                      A
 Frequencies --  3266.7037              3270.7856              3275.5844
 Red. masses --     1.0605                 1.0811                 1.0828
 Frc consts  --     6.6678                 6.8144                 6.8451
 IR Inten    --    10.4965                 4.2350                 3.8456
 Raman Activ --   146.1544                14.8584                 3.9370

                   115                    116                    117
                     A                      A                      A
 Frequencies --  3282.4983              3282.5932              3288.7173
 Red. masses --     1.0848                 1.0837                 1.0857
 Frc consts  --     6.8864                 6.8798                 6.9188
 IR Inten    --    31.4858                11.0254                22.5795
 Raman Activ --    11.0212               135.1511               128.3118

                   118                    119                    120
                     A                      A                      A
 Frequencies --  3289.1767              3298.5855              3304.7821
 Red. masses --     1.0865                 1.0879                 1.0867
 Frc consts  --     6.9253                 6.9741                 6.9925
 IR Inten    --     1.0875                87.4819                42.2003
 Raman Activ --    10.0212                20.0478                 7.7937

                   121                    122                    123
                     A                      A                      A
 Frequencies --  3313.4664              3319.9310              3323.8874
 Red. masses --     1.1048                 1.0673                 1.1059
 Frc consts  --     7.1466                 6.9310                 7.1990
 IR Inten    --    43.8043               406.6089                51.4981
 Raman Activ --    20.9198               169.0147                25.2561

                   124                    125                    126
                     A                      A                      A
 Frequencies --  3364.7465              3369.0259              3371.6502
 Red. masses --     1.0657                 1.0667                 1.0682
 Frc consts  --     7.1087                 7.1332                 7.1544
 IR Inten    --    33.9424                44.2943                51.5173
 Raman Activ --   124.9526               133.7379               213.0854

                   127                    128                    129
                     A                      A                      A
 Frequencies --  3375.4921              3889.5455              3893.5963
 Red. masses --     1.0693                 1.0678                 1.0673
 Frc consts  --     7.1783                 9.5175                 9.5333
 IR Inten    --    57.0649                85.0574                73.0601
 Raman Activ --   168.4347                79.9279               112.0519

 - Thermochemistry -
 -------------------
 Temperature   298.150 Kelvin.  Pressure   1.00000 Atm.
 Atom     1 has atomic number  8 and mass  15.99491

 Molecular mass:   342.11621 amu.
 Principal axes and moments of inertia in atomic units:
                           1         2         3
     Eigenvalues --  4419.84253********************
           X            0.99997  -0.00724   0.00037
           Y            0.00724   0.99997  -0.00207
           Z           -0.00036   0.00208   1.00000
 This molecule is an asymmetric top.
 Rotational symmetry number  1.
 Warning -- assumption of classical behavior for rotation
           may cause significant error
 Rotational temperatures (Kelvin)      0.01960     0.00701     0.00529
 Rotational constants (GHZ):           0.40833     0.14611     0.11013
    7 imaginary frequencies ignored.
 Zero-point vibrational energy     972698.4 (Joules/Mol)
                                  232.48050 (Kcal/Mol)
 Warning -- explicit consideration of  32 degrees of freedom as
           vibrations may cause significant error
 Vibrational temperatures:     60.82    90.69   110.25   136.87   176.80
          (Kelvin)            239.58   250.78   276.59   303.04   339.13
                              383.00   410.67   416.18   427.15   431.41
                              464.04   472.53   504.62   523.82   551.69
                              577.59   612.56   624.86   639.27   689.46
                              703.42   731.36   751.85   810.00   831.95
                              861.71   880.93   897.01   919.94   969.56
                              986.47  1004.83  1082.80  1166.65  1190.46
                             1233.32  1246.17  1330.22  1379.91  1386.53
                             1413.05  1430.97  1440.69  1454.52  1475.30
                             1496.41  1508.28  1526.47  1535.92  1545.22
                             1547.44  1576.20  1584.05  1595.66  1611.08
                             1621.52  1623.02  1633.60  1639.46  1661.54
                             1678.49  1681.02  1693.10  1733.72  1742.41
                             1772.61  1774.35  1778.48  1792.40  1818.34
                             1844.68  1850.10  1853.89  1854.98  1861.06
                             1874.60  1885.29  1908.03  1920.81  1927.86
                             1940.43  1955.70  1959.02  1968.75  1970.38
                             1977.49  2004.62  2021.20  2040.06  2052.34
                             2115.53  2117.45  2122.51  2125.29  2203.54
                             4640.73  4684.49  4691.11  4691.59  4700.05
                             4705.93  4712.83  4722.78  4722.91  4731.72
                             4732.39  4745.92  4754.84  4767.33  4776.63
                             4782.33  4841.11  4847.27  4851.05  4856.57
                             5596.18  5602.01

 Zero-point correction=                           0.370481 (Hartree/Particle)
 Thermal correction to Energy=                    0.388807
 Thermal correction to Enthalpy=                  0.389751
 Thermal correction to Gibbs Free Energy=         0.324993
 Sum of electronic and zero-point Energies=          -1297.615762
 Sum of electronic and thermal Energies=             -1297.597436
 Sum of electronic and thermal Enthalpies=           -1297.596492
 Sum of electronic and thermal Free Energies=        -1297.661250

                     E (Thermal)             CV                S
                      KCal/Mol        Cal/Mol-Kelvin    Cal/Mol-Kelvin
 Total                  243.980             76.174            136.295
 Electronic               0.000              0.000              0.000
 Translational            0.889              2.981             43.384
 Rotational               0.889              2.981             35.147
 Vibrational            242.203             70.213             57.765
 Vibration     1          0.595              1.980              5.150
 Vibration     2          0.597              1.972              4.360
 Vibration     3          0.599              1.965              3.975
 Vibration     4          0.603              1.953              3.552
 Vibration     5          0.610              1.930              3.055
 Vibration     6          0.624              1.884              2.474
 Vibration     7          0.627              1.874              2.389
 Vibration     8          0.634              1.851              2.206
 Vibration     9          0.643              1.825              2.038
 Vibration    10          0.655              1.786              1.835
 Vibration    11          0.672              1.735              1.621
 Vibration    12          0.683              1.701              1.501
 Vibration    13          0.686              1.694              1.478
 Vibration    14          0.691              1.680              1.434
 Vibration    15          0.692              1.674              1.418
 Vibration    16          0.708              1.630              1.297
 Vibration    17          0.712              1.619              1.268
 Vibration    18          0.728              1.574              1.163
 Vibration    19          0.738              1.546              1.105
 Vibration    20          0.753              1.506              1.026
 Vibration    21          0.767              1.467              0.957
 Vibration    22          0.788              1.414              0.873
 Vibration    23          0.795              1.395              0.845
 Vibration    24          0.804              1.373              0.813
 Vibration    25          0.836              1.296              0.712
 Vibration    26          0.845              1.275              0.686
 Vibration    27          0.863              1.232              0.638
 Vibration    28          0.878              1.200              0.604
 Vibration    29          0.919              1.111              0.518
 Vibration    30          0.935              1.078              0.489
 Vibration    31          0.957              1.034              0.452
 Vibration    32          0.972              1.006              0.429

 Normal termination of Gaussian 09 at Wed Mar 23 06:07:32 2016.
