 Gaussian 09, Revision B.01,
 Gaussian 09:  EM64L-G09RevB.01 12-Aug-2010

 -------------------------------------------------
 # freq=raman b3lyp/6-31+g(2d,p) geom=connectivity
 -------------------------------------------------

 -----------------
 350 5578/5578.com
 -----------------
 Symbolic Z-matrix:
 Charge =  0 Multiplicity = 1

                         Standard orientation:
 ---------------------------------------------------------------------
 Center     Atomic      Atomic             Coordinates (Angstroms)
 Number     Number       Type             X           Y           Z
 ---------------------------------------------------------------------
      1          8           0        4.974280   -0.426170   -0.313368
      2          6           0        3.665662   -0.150239    0.206613
      3          6           0        3.205315    1.203626   -0.307972
      4          8           0        4.062585    2.305324    0.023051
      5          1           0        4.996138    1.952796    0.088070
      6          6           0        1.883743    1.563879    0.352341
      7          8           0        1.398597    2.805487   -0.177355
      8          1           0        0.506078    2.949477    0.249018
      9          6           0        3.005392   -2.612742    0.143131
     10          8           0        4.141221   -3.168827   -0.535798
     11          1           0        4.161473   -4.156784   -0.382855
     12          6           0        2.630219   -1.182037   -0.209396
     13          8           0        1.321241   -0.899491    0.305188
     14          6           0        0.927121    0.442240   -0.016703
     15          8           0       -0.291925    0.493258    0.740312
     16          6           0       -1.471001    0.198597   -0.022192
     17          6           0       -1.997054   -1.132031    0.491685
     18          8           0       -1.018952   -2.063637    0.007684
     19          1           0       -0.110312   -1.762752    0.297942
     20          6           0       -3.335731   -1.545611   -0.095748
     21          8           0       -3.850210   -2.773186    0.442851
     22          1           0       -4.696171   -3.060443   -0.005719
     23          6           0       -2.201824    2.579241   -0.362181
     24          8           0       -1.195014    3.454826    0.166134
     25          1           0       -1.449944    4.395868   -0.056657
     26          6           0       -2.534348    1.241600    0.279745
     27          8           0       -3.826846    0.879071   -0.226891
     28          6           0       -4.351347   -0.425735    0.057080
     29          8           0       -5.444735   -0.585365   -0.858975
     30          1           0       -6.243008   -0.798916   -0.370348
     31          1           0       -3.112308    3.140638   -0.389592
     32          1           0       -1.927247    2.372886   -1.375554
     33          1           0       -2.600912    1.371924    1.339691
     34          1           0       -1.256221    0.153077   -1.069425
     35          1           0       -2.030567   -1.140539    1.561126
     36          1           0       -3.187018   -1.698477   -1.144279
     37          1           0       -4.731491   -0.436939    1.057212
     38          1           0        5.556868   -0.681967    0.405491
     39          1           0        2.160337   -3.235490   -0.064153
     40          1           0        3.198007   -2.653157    1.194875
     41          1           0        2.560685   -1.134529   -1.276077
     42          1           0        3.715445   -0.118373    1.274979
     43          1           0        3.074575    1.157905   -1.368970
     44          1           0        1.998539    1.626102    1.414343
     45          1           0        0.698229    0.502625   -1.060189
 ---------------------------------------------------------------------

 SCF Done:  E(RB3LYP) =  -1297.99121507     A.U. after   13 cycles

 The electronic state is 1-A.
 Alpha  occ. eigenvalues --  -19.19214 -19.18268 -19.17823 -19.17553 -19.17291
 Alpha  occ. eigenvalues --  -19.17248 -19.16380 -19.16101 -19.15054 -19.13945
 Alpha  occ. eigenvalues --  -19.12441 -10.30298 -10.30101 -10.25752 -10.25655
 Alpha  occ. eigenvalues --  -10.25453 -10.24978 -10.24592 -10.24456 -10.24410
 Alpha  occ. eigenvalues --  -10.24327 -10.24154 -10.23767  -1.10828  -1.08350
 Alpha  occ. eigenvalues --   -1.05489  -1.04925  -1.04058  -1.02944  -1.02795
 Alpha  occ. eigenvalues --   -1.02403  -1.02160  -1.00294  -0.99774  -0.81891
 Alpha  occ. eigenvalues --   -0.80978  -0.79003  -0.78097  -0.71658  -0.69845
 Alpha  occ. eigenvalues --   -0.67269  -0.64867  -0.63057  -0.62796  -0.61424
 Alpha  occ. eigenvalues --   -0.59892  -0.56104  -0.55937  -0.54996  -0.54445
 Alpha  occ. eigenvalues --   -0.54400  -0.53116  -0.52903  -0.51749  -0.51219
 Alpha  occ. eigenvalues --   -0.50468  -0.50350  -0.49375  -0.48398  -0.46455
 Alpha  occ. eigenvalues --   -0.46247  -0.44927  -0.43639  -0.43488  -0.43066
 Alpha  occ. eigenvalues --   -0.42755  -0.42254  -0.40716  -0.40150  -0.39536
 Alpha  occ. eigenvalues --   -0.38274  -0.37601  -0.36904  -0.36500  -0.36013
 Alpha  occ. eigenvalues --   -0.35856  -0.34802  -0.34280  -0.33988  -0.33324
 Alpha  occ. eigenvalues --   -0.32595  -0.31103  -0.30624  -0.30087  -0.29727
 Alpha  occ. eigenvalues --   -0.29531  -0.28788  -0.28046  -0.27886  -0.26941
 Alpha  occ. eigenvalues --   -0.25465
 Alpha virt. eigenvalues --   -0.02196  -0.01732  -0.01631  -0.00316   0.00512
 Alpha virt. eigenvalues --    0.01049   0.01688   0.02476   0.03087   0.03475
 Alpha virt. eigenvalues --    0.03997   0.04332   0.05218   0.05478   0.05618

 Mulliken atomic charges:
              1
     1  O   -0.521883
     2  C   -0.167024
     3  C    0.159739
     4  O   -0.548783
     5  H    0.338071
     6  C   -0.079599
     7  O   -0.510146
     8  H    0.389454
     9  C   -0.137974
    10  O   -0.517728
    11  H    0.338868
    12  C    0.140294
    13  O   -0.279965
    14  C    0.105767
    15  O   -0.210233
    16  C    0.378297
    17  C    0.160162
    18  O   -0.587440
    19  H    0.404139
    20  C    0.045853
    21  O   -0.558362
    22  H    0.333768
    23  C   -0.257876
    24  O   -0.556665
    25  H    0.353807
    26  C   -0.092919
    27  O   -0.247974
    28  C    0.165530
    29  O   -0.524203
    30  H    0.332235
    31  H    0.140274
    32  H    0.148903
    33  H    0.120869
    34  H    0.116768
    35  H    0.127292
    36  H    0.134086
    37  H    0.120770
    38  H    0.339071
    39  H    0.150285
    40  H    0.135381
    41  H    0.116973
    42  H    0.120670
    43  H    0.126274
    44  H    0.131416
    45  H    0.123757
 Sum of Mulliken atomic charges =   0.00000

 Dipole moment (field-independent basis, Debye):
    X=             -1.5746    Y=             -0.8119    Z=              2.2203  Tot=              2.8405
 Quadrupole moment (field-independent basis, Debye-Ang):
   XX=           -116.1017   YY=           -135.1828   ZZ=           -139.8058
   XY=            -15.7076   XZ=              6.4693   YZ=             -0.9398

  Exact polarizability: 232.437   2.713 198.368   1.063  -0.695 143.525
 Approx polarizability: 273.084   2.754 258.756   0.577  -0.500 239.045

 ******    7 imaginary frequencies (negative Signs) ******

                     1                      2                      3
                     A                      A                      A
 Frequencies --  -287.7219              -272.7210              -237.1895
 Red. masses --     1.7200                 1.7119                 1.2102
 Frc consts  --     0.0839                 0.0750                 0.0401
 IR Inten    --     2.9601                21.3775               106.6354
 Raman Activ --     0.0323                 0.1374                 0.9212

                     4                      5                      6
                     A                      A                      A
 Frequencies --  -204.5468               -78.2885               -45.6573
 Red. masses --     1.2277                 6.8390                 6.1135
 Frc consts  --     0.0303                 0.0247                 0.0075
 IR Inten    --    82.9238                 1.4271                 0.7693
 Raman Activ --     0.6653                 0.0499                 0.0135

                     7                      8                      9
                     A                      A                      A
 Frequencies --   -29.7259                40.9978                60.7552
 Red. masses --     6.5922                 6.9882                 6.1853
 Frc consts  --     0.0034                 0.0069                 0.0135
 IR Inten    --     0.6523                 0.7081                 2.0711
 Raman Activ --     0.0487                 0.0648                 0.0547

                    10                     11                     12
                     A                      A                      A
 Frequencies --    83.7787                89.0283                96.7822
 Red. masses --     5.7880                 6.6847                 6.0010
 Frc consts  --     0.0239                 0.0312                 0.0331
 IR Inten    --     2.4840                 0.1240                 2.5067
 Raman Activ --     0.0819                 0.2684                 0.0781

                    13                     14                     15
                     A                      A                      A
 Frequencies --   150.5782               174.9415               186.5708
 Red. masses --     5.9093                 6.2996                 7.0290
 Frc consts  --     0.0789                 0.1136                 0.1442
 IR Inten    --     7.5814                 0.9764                 0.4782
 Raman Activ --     0.1845                 0.5065                 0.4346

                    16                     17                     18
                     A                      A                      A
 Frequencies --   213.1821               234.6444               267.6133
 Red. masses --     6.7215                 5.6534                 4.6424
 Frc consts  --     0.1800                 0.1834                 0.1959
 IR Inten    --     0.8721                 1.2846                15.0839
 Raman Activ --     2.9629                 0.3051                 0.3221

                    19                     20                     21
                     A                      A                      A
 Frequencies --   279.1535               287.2974               301.0661
 Red. masses --     4.9549                 4.4887                 5.2417
 Frc consts  --     0.2275                 0.2183                 0.2799
 IR Inten    --     1.0689                 1.3401                 8.2150
 Raman Activ --     0.1910                 0.1395                 0.4002

                    22                     23                     24
                     A                      A                      A
 Frequencies --   313.3367               318.4256               322.5420
 Red. masses --     5.2537                 5.9274                 5.7480
 Frc consts  --     0.3039                 0.3541                 0.3523
 IR Inten    --     0.6496                 0.1390                10.8246
 Raman Activ --     3.9121                 1.6186                 2.7018

                    25                     26                     27
                     A                      A                      A
 Frequencies --   349.2429               360.1446               381.6435
 Red. masses --     7.0875                 5.4410                 6.5064
 Frc consts  --     0.5093                 0.4158                 0.5583
 IR Inten    --     3.4259                 4.3477                 2.1756
 Raman Activ --     1.6579                 0.1206                 1.4652

                    28                     29                     30
                     A                      A                      A
 Frequencies --   403.6750               428.5588               442.1637
 Red. masses --     3.9267                 6.6254                 4.7970
 Frc consts  --     0.3770                 0.7169                 0.5526
 IR Inten    --    22.0802                 1.2457                 2.8307
 Raman Activ --     3.0440                 7.0316                 0.7077

                    31                     32                     33
                     A                      A                      A
 Frequencies --   452.2105               476.3642               488.0454
 Red. masses --     5.9051                 5.3628                 3.4852
 Frc consts  --     0.7115                 0.7170                 0.4891
 IR Inten    --     5.9086                 0.5467                 9.7342
 Raman Activ --     1.4901                 4.6468                 1.7958

                    34                     35                     36
                     A                      A                      A
 Frequencies --   525.9610               540.2019               574.0422
 Red. masses --     4.4496                 2.9712                 4.7904
 Frc consts  --     0.7252                 0.5109                 0.9301
 IR Inten    --     8.4039                 2.9351                 8.8990
 Raman Activ --     0.9920                 2.8728                 1.7982

                    37                     38                     39
                     A                      A                      A
 Frequencies --   588.4890               595.9429               618.7241
 Red. masses --     3.5763                 4.1507                 4.4995
 Frc consts  --     0.7297                 0.8685                 1.0149
 IR Inten    --    25.0510                28.7104                22.6317
 Raman Activ --     0.4304                 0.9401                 0.9546

                    40                     41                     42
                     A                      A                      A
 Frequencies --   651.8255               681.3617               695.3672
 Red. masses --     3.7057                 1.0771                 1.0594
 Frc consts  --     0.9276                 0.2946                 0.3018
 IR Inten    --    31.6373               110.5121                80.3631
 Raman Activ --     1.3151                 1.8023                 1.6523

                    43                     44                     45
                     A                      A                      A
 Frequencies --   698.5232               702.1743               734.5103
 Red. masses --     2.8637                 1.2834                 1.0857
 Frc consts  --     0.8233                 0.3728                 0.3451
 IR Inten    --    49.6606                76.8107                89.2056
 Raman Activ --     1.2043                 2.9186                 1.3201

                    46                     47                     48
                     A                      A                      A
 Frequencies --   833.9484               840.7685               856.9517
 Red. masses --     1.1975                 1.0836                 1.7860
 Frc consts  --     0.4907                 0.4513                 0.7728
 IR Inten    --   122.4417                82.7329                 2.9949
 Raman Activ --     1.5334                 2.9876                 0.6570

                    49                     50                     51
                     A                      A                      A
 Frequencies --   859.6105               925.0569               950.1821
 Red. masses --     1.5368                 5.2498                 5.8637
 Frc consts  --     0.6691                 2.6469                 3.1191
 IR Inten    --    36.4060               183.8145                26.0207
 Raman Activ --     0.3413                 2.5264                 1.1402

                    52                     53                     54
                     A                      A                      A
 Frequencies --   974.5452               980.4556               990.6724
 Red. masses --     6.5638                 6.7734                 4.0396
 Frc consts  --     3.6729                 3.8363                 2.3359
 IR Inten    --    32.3423               215.8481                30.9643
 Raman Activ --     3.4816                 0.4764                 0.3824

                    55                     56                     57
                     A                      A                      A
 Frequencies --  1003.5180              1009.8771              1024.9026
 Red. masses --     7.0352                 5.5464                 6.2811
 Frc consts  --     4.1742                 3.3327                 3.8873
 IR Inten    --   245.9767                71.8852               158.1433
 Raman Activ --     1.8226                 3.0578                 3.0636

                    58                     59                     60
                     A                      A                      A
 Frequencies --  1034.4973              1054.3629              1058.7048
 Red. masses --     5.4730                 5.9364                 5.0723
 Frc consts  --     3.4509                 3.8882                 3.3497
 IR Inten    --   335.7809               112.9279                85.1325
 Raman Activ --     2.5073                 2.5349                 1.5486

                    61                     62                     63
                     A                      A                      A
 Frequencies --  1066.5863              1068.2547              1078.9199
 Red. masses --     3.9894                 3.3175                 4.3648
 Frc consts  --     2.6739                 2.2306                 2.9936
 IR Inten    --    51.1416                11.6104                42.4837
 Raman Activ --     2.5879                23.4202                10.6546

                    64                     65                     66
                     A                      A                      A
 Frequencies --  1090.6083              1099.5321              1109.1703
 Red. masses --     2.6504                 2.7877                 2.6425
 Frc consts  --     1.8574                 1.9857                 1.9154
 IR Inten    --    52.1460                 2.5597                51.8344
 Raman Activ --     3.2516                 4.9821                 3.6704

                    67                     68                     69
                     A                      A                      A
 Frequencies --  1112.9651              1122.7169              1126.9361
 Red. masses --     2.8582                 2.1353                 2.6076
 Frc consts  --     2.0859                 1.5858                 1.9511
 IR Inten    --     9.6273                60.6882                14.6358
 Raman Activ --    12.4944                 4.2411                 8.8877

                    70                     71                     72
                     A                      A                      A
 Frequencies --  1144.5413              1152.0866              1154.0496
 Red. masses --     2.4945                 1.7440                 2.5205
 Frc consts  --     1.9253                 1.3638                 1.9778
 IR Inten    --    14.7599                 0.2166                 2.4402
 Raman Activ --     2.7288                 5.1706                 3.7769

                    73                     74                     75
                     A                      A                      A
 Frequencies --  1161.8932              1167.6296              1181.1207
 Red. masses --     1.5638                 2.0278                 2.1860
 Frc consts  --     1.2438                 1.6288                 1.7967
 IR Inten    --     6.9056                 2.8472                 8.6540
 Raman Activ --     0.4093                 2.8690                 2.4403

                    76                     77                     78
                     A                      A                      A
 Frequencies --  1188.9032              1206.8663              1228.5707
 Red. masses --     1.2627                 1.3147                 1.2974
 Frc consts  --     1.0516                 1.1283                 1.1538
 IR Inten    --    13.1761                 6.5468                 6.7582
 Raman Activ --     2.1973                 1.0300                 1.4827

                    79                     80                     81
                     A                      A                      A
 Frequencies --  1243.8919              1247.3898              1254.1474
 Red. masses --     1.2787                 1.1964                 1.1841
 Frc consts  --     1.1657                 1.0968                 1.0973
 IR Inten    --    12.5634                17.6070                14.0239
 Raman Activ --     1.0232                 0.8818                 1.2579

                    82                     83                     84
                     A                      A                      A
 Frequencies --  1263.3703              1272.1695              1283.7856
 Red. masses --     1.2770                 1.3499                 1.2881
 Frc consts  --     1.2009                 1.2872                 1.2508
 IR Inten    --     4.6169                10.4804                19.7291
 Raman Activ --     2.4578                 1.0538                 1.3892

                    85                     86                     87
                     A                      A                      A
 Frequencies --  1285.4923              1289.0852              1297.2320
 Red. masses --     1.2890                 1.2257                 1.3221
 Frc consts  --     1.2550                 1.2000                 1.3108
 IR Inten    --    13.5777                41.3877                49.1598
 Raman Activ --     1.2784                 7.7444                 4.2260

                    88                     89                     90
                     A                      A                      A
 Frequencies --  1304.2865              1305.6766              1321.6861
 Red. masses --     1.3150                 1.1673                 1.3037
 Frc consts  --     1.3180                 1.1725                 1.3418
 IR Inten    --     9.1586                 6.3154                30.1121
 Raman Activ --     8.7834                 5.4689                 6.9564

                    91                     92                     93
                     A                      A                      A
 Frequencies --  1329.3747              1338.4467              1341.1765
 Red. masses --     1.3535                 1.3059                 1.2385
 Frc consts  --     1.4093                 1.3783                 1.3126
 IR Inten    --    19.1786                16.8945                31.2049
 Raman Activ --     3.9601                 1.7638                 1.7815

                    94                     95                     96
                     A                      A                      A
 Frequencies --  1362.3972              1370.4062              1380.4710
 Red. masses --     1.2535                 1.3447                 1.4640
 Frc consts  --     1.3708                 1.4879                 1.6438
 IR Inten    --    25.9543                16.6269                10.1302
 Raman Activ --     4.8208                 3.8260                 4.0003

                    97                     98                     99
                     A                      A                      A
 Frequencies --  1381.3615              1390.7379              1400.7425
 Red. masses --     1.4694                 1.4354                 1.4540
 Frc consts  --     1.6520                 1.6357                 1.6808
 IR Inten    --     1.9927                 7.5307                 0.8251
 Raman Activ --     6.9171                 3.2075                10.9679

                   100                    101                    102
                     A                      A                      A
 Frequencies --  1412.3605              1432.1650              1461.6603
 Red. masses --     1.5325                 1.4131                 1.3811
 Frc consts  --     1.8011                 1.7077                 1.7384
 IR Inten    --    27.4419                58.3086                19.0506
 Raman Activ --     1.9321                 1.3549                 2.6361

                   103                    104                    105
                     A                      A                      A
 Frequencies --  1468.6793              1473.6605              1474.0841
 Red. masses --     1.1221                 1.2839                 1.1049
 Frc consts  --     1.4260                 1.6428                 1.4146
 IR Inten    --    12.2736                12.1780                 4.2662
 Raman Activ --     4.9780                 0.3866                 3.0479

                   106                    107                    108
                     A                      A                      A
 Frequencies --  1489.1208              1509.3476              3253.8567
 Red. masses --     1.2759                 1.2435                 1.0583
 Frc consts  --     1.6670                 1.6690                 6.6018
 IR Inten    --    74.8552                42.4678                18.1842
 Raman Activ --     1.1151                 2.6346                83.5769

                   109                    110                    111
                     A                      A                      A
 Frequencies --  3256.9234              3261.3948              3271.2120
 Red. masses --     1.0591                 1.0698                 1.0801
 Frc consts  --     6.6189                 6.7046                 6.8097
 IR Inten    --    27.7175               588.8188                59.1503
 Raman Activ --    64.5709               190.9820                91.3413

                   112                    113                    114
                     A                      A                      A
 Frequencies --  3274.5290              3277.1628              3279.5174
 Red. masses --     1.0839                 1.0832                 1.0832
 Frc consts  --     6.8475                 6.8543                 6.8638
 IR Inten    --    13.9877                26.8378                 3.3531
 Raman Activ --    85.2614                57.0425                 7.1094

                   115                    116                    117
                     A                      A                      A
 Frequencies --  3283.8261              3285.6411              3287.6531
 Red. masses --     1.0840                 1.0838                 1.0847
 Frc consts  --     6.8874                 6.8933                 6.9075
 IR Inten    --    13.7686                40.0216                47.8696
 Raman Activ --   162.6102               107.1886                55.0956

                   118                    119                    120
                     A                      A                      A
 Frequencies --  3293.6810              3301.3927              3304.5577
 Red. masses --     1.0857                 1.0836                 1.0878
 Frc consts  --     6.9391                 6.9582                 6.9990
 IR Inten    --    18.2846               183.2071               176.3142
 Raman Activ --    49.2460                50.5426                 3.9799

                   121                    122                    123
                     A                      A                      A
 Frequencies --  3306.9360              3311.1816              3312.4635
 Red. masses --     1.0773                 1.1047                 1.0987
 Frc consts  --     6.9412                 7.1364                 7.1031
 IR Inten    --   381.9898                56.3614               161.6641
 Raman Activ --    95.6759                36.3935                11.2009

                   124                    125                    126
                     A                      A                      A
 Frequencies --  3365.2124              3369.0968              3372.7433
 Red. masses --     1.0655                 1.0674                 1.0669
 Frc consts  --     7.1096                 7.1382                 7.1505
 IR Inten    --    24.6326                46.7964                69.5480
 Raman Activ --   109.6096               176.6152               105.2563

                   127                    128                    129
                     A                      A                      A
 Frequencies --  3373.0998              3888.9770              3890.6384
 Red. masses --     1.0679                 1.0677                 1.0674
 Frc consts  --     7.1588                 9.5137                 9.5198
 IR Inten    --    37.3158                76.9545                69.4200
 Raman Activ --   211.2825                82.8466               123.4005

 - Thermochemistry -
 -------------------
 Temperature   298.150 Kelvin.  Pressure   1.00000 Atm.
 Atom     1 has atomic number  8 and mass  15.99491

 Molecular mass:   342.11621 amu.
 Principal axes and moments of inertia in atomic units:
                           1         2         3
     Eigenvalues --  4482.83134********************
           X            0.99997  -0.00772   0.00118
           Y            0.00773   0.99997  -0.00250
           Z           -0.00116   0.00251   1.00000
 This molecule is an asymmetric top.
 Rotational symmetry number  1.
 Warning -- assumption of classical behavior for rotation
           may cause significant error
 Rotational temperatures (Kelvin)      0.01932     0.00716     0.00537
 Rotational constants (GHZ):           0.40259     0.14920     0.11189
    7 imaginary frequencies ignored.
 Zero-point vibrational energy     974211.1 (Joules/Mol)
                                  232.84203 (Kcal/Mol)
 Warning -- explicit consideration of  32 degrees of freedom as
           vibrations may cause significant error
 Vibrational temperatures:     58.99    87.41   120.54   128.09   139.25
          (Kelvin)            216.65   251.70   268.43   306.72   337.60
                              385.04   401.64   413.36   433.17   450.82
                              458.14   464.07   502.48   518.17   549.10
                              580.80   616.60   636.17   650.63   685.38
                              702.19   756.74   777.23   825.92   846.70
                              857.43   890.20   937.83   980.33  1000.48
                             1005.02  1010.27  1056.80  1199.86  1209.68
                             1232.96  1236.79  1330.95  1367.10  1402.15
                             1410.66  1425.35  1443.84  1452.99  1474.60
                             1488.41  1516.99  1523.24  1534.58  1536.98
                             1552.32  1569.14  1581.98  1595.85  1601.31
                             1615.34  1621.41  1646.74  1657.59  1660.42
                             1671.70  1679.96  1699.37  1710.56  1736.41
                             1767.64  1789.68  1794.71  1804.44  1817.71
                             1830.37  1847.08  1849.53  1854.70  1866.43
                             1876.57  1878.57  1901.61  1912.67  1925.72
                             1929.65  1960.18  1971.71  1986.19  1987.47
                             2000.96  2015.35  2032.07  2060.56  2103.00
                             2113.10  2120.27  2120.88  2142.51  2171.61
                             4681.57  4685.98  4692.41  4706.54  4711.31
                             4715.10  4718.49  4724.69  4727.30  4730.19
                             4738.87  4749.96  4754.52  4757.94  4764.05
                             4765.89  4841.78  4847.37  4852.62  4853.13
                             5595.36  5597.75

 Zero-point correction=                           0.371057 (Hartree/Particle)
 Thermal correction to Energy=                    0.389371
 Thermal correction to Enthalpy=                  0.390315
 Thermal correction to Gibbs Free Energy=         0.325346
 Sum of electronic and zero-point Energies=          -1297.620158
 Sum of electronic and thermal Energies=             -1297.601844
 Sum of electronic and thermal Enthalpies=           -1297.600900
 Sum of electronic and thermal Free Energies=        -1297.665869

                     E (Thermal)             CV                S
                      KCal/Mol        Cal/Mol-Kelvin    Cal/Mol-Kelvin
 Total                  244.334             75.817            136.738
 Electronic               0.000              0.000              0.000
 Translational            0.889              2.981             43.384
 Rotational               0.889              2.981             35.124
 Vibrational            242.557             69.855             58.230
 Vibration     1          0.594              1.981              5.210
 Vibration     2          0.597              1.973              4.433
 Vibration     3          0.601              1.960              3.800
 Vibration     4          0.602              1.957              3.681
 Vibration     5          0.603              1.951              3.518
 Vibration     6          0.618              1.902              2.665
 Vibration     7          0.627              1.873              2.382
 Vibration     8          0.632              1.858              2.262
 Vibration     9          0.644              1.821              2.016
 Vibration    10          0.654              1.788              1.843
 Vibration    11          0.673              1.733              1.612
 Vibration    12          0.679              1.712              1.539
 Vibration    13          0.684              1.697              1.490
 Vibration    14          0.693              1.672              1.411
 Vibration    15          0.701              1.648              1.345
 Vibration    16          0.705              1.638              1.318
 Vibration    17          0.708              1.630              1.297
 Vibration    18          0.727              1.577              1.170
 Vibration    19          0.735              1.554              1.121
 Vibration    20          0.751              1.509              1.033
 Vibration    21          0.769              1.462              0.949
 Vibration    22          0.790              1.408              0.863
 Vibration    23          0.802              1.378              0.820
 Vibration    24          0.811              1.356              0.789
 Vibration    25          0.833              1.302              0.720
 Vibration    26          0.844              1.277              0.689
 Vibration    27          0.881              1.193              0.596
 Vibration    28          0.895              1.161              0.565
 Vibration    29          0.930              1.087              0.497
 Vibration    30          0.946              1.056              0.470
 Vibration    31          0.954              1.040              0.457
 Vibration    32          0.979              0.992              0.419

 Normal termination of Gaussian 09 at Fri Mar 25 20:10:10 2016.
