 Gaussian 09, Revision B.01,
 Gaussian 09:  EM64L-G09RevB.01 12-Aug-2010

 -------------------------------------------------
 # freq=raman b3lyp/6-31+g(2d,p) geom=connectivity
 -------------------------------------------------

 -----------------
 320 5621/5621.com
 -----------------
 Symbolic Z-matrix:
 Charge =  0 Multiplicity = 1

                         Standard orientation:
 ---------------------------------------------------------------------
 Center     Atomic      Atomic             Coordinates (Angstroms)
 Number     Number       Type             X           Y           Z
 ---------------------------------------------------------------------
      1          8           0        4.972176   -0.386107   -0.418157
      2          6           0        3.688795   -0.081498    0.147903
      3          6           0        3.294432    1.350230   -0.174914
      4          8           0        4.245504    2.253059    0.407089
      5          1           0        5.130534    1.864223    0.153048
      6          6           0        1.848377    1.540433    0.253688
      7          8           0        1.309647    2.777779   -0.234561
      8          1           0        0.323514    2.866600   -0.088107
      9          6           0        3.040248   -2.553776    0.262705
     10          8           0        4.209199   -3.177030   -0.289330
     11          1           0        4.032938   -4.157950   -0.378631
     12          6           0        2.694387   -1.162469   -0.244434
     13          8           0        1.400377   -0.878998    0.308539
     14          6           0        0.966315    0.389554   -0.202180
     15          8           0       -0.334073    0.551001    0.383122
     16          6           0       -1.585195    0.207701   -0.230281
     17          6           0       -1.938954   -1.162305    0.322979
     18          8           0       -1.149456   -2.263834   -0.149552
     19          1           0       -0.209540   -1.958845    0.001490
     20          6           0       -3.358812   -1.528303   -0.077364
     21          8           0       -3.753703   -2.874277    0.227025
     22          1           0       -4.684358   -2.994629   -0.118660
     23          6           0       -2.390269    2.682815   -0.262351
     24          8           0       -1.196396    3.437302   -0.007257
     25          1           0       -1.494924    4.379072    0.143922
     26          6           0       -2.569064    1.262177    0.249388
     27          8           0       -3.898522    0.854970   -0.107531
     28          6           0       -4.310142   -0.432566    0.374415
     29          8           0       -5.434931   -0.571145   -0.504912
     30          1           0       -6.198228   -0.867614   -0.003828
     31          1           0       -4.566983   -0.457060    1.412843
     32          1           0       -3.367181   -1.478282   -1.146162
     33          1           0       -1.878720   -1.128077    1.390734
     34          1           0       -1.508421    0.195156   -1.297449
     35          1           0       -2.512540    1.293889    1.317423
     36          1           0       -3.205691    3.255502    0.127541
     37          1           0       -2.509260    2.644611   -1.325027
     38          1           0        2.204171   -3.192021    0.066444
     39          1           0        3.169867   -2.493890    1.323135
     40          1           0        2.617477   -1.191400   -1.311274
     41          1           0        5.559667   -0.701877    0.272309
     42          1           0        3.797748   -0.136549    1.210917
     43          1           0        3.338326    1.471514   -1.237111
     44          1           0        1.824069    1.570069    1.323001
     45          1           0        0.898242    0.363830   -1.269703
 ---------------------------------------------------------------------

 SCF Done:  E(RB3LYP) =  -1297.98980718     A.U. after   13 cycles

 The electronic state is 1-A.
 Alpha  occ. eigenvalues --  -19.19278 -19.18525 -19.17830 -19.17373 -19.17171
 Alpha  occ. eigenvalues --  -19.16594 -19.16378 -19.16219 -19.15218 -19.14541
 Alpha  occ. eigenvalues --  -19.12367 -10.30587 -10.30498 -10.26194 -10.25929
 Alpha  occ. eigenvalues --  -10.25717 -10.25308 -10.24709 -10.24305 -10.24115
 Alpha  occ. eigenvalues --  -10.24040 -10.23979 -10.23946  -1.09910  -1.09364
 Alpha  occ. eigenvalues --   -1.06075  -1.05108  -1.03930  -1.03290  -1.02765
 Alpha  occ. eigenvalues --   -1.02219  -1.01705  -1.00796  -0.99297  -0.82255
 Alpha  occ. eigenvalues --   -0.80046  -0.79523  -0.78017  -0.72178  -0.69621
 Alpha  occ. eigenvalues --   -0.67389  -0.64630  -0.63358  -0.62445  -0.61168
 Alpha  occ. eigenvalues --   -0.60144  -0.56682  -0.56113  -0.55079  -0.54535
 Alpha  occ. eigenvalues --   -0.54365  -0.53318  -0.52702  -0.51642  -0.51207
 Alpha  occ. eigenvalues --   -0.50419  -0.49573  -0.49337  -0.48913  -0.46443
 Alpha  occ. eigenvalues --   -0.46200  -0.45082  -0.44194  -0.43684  -0.42904
 Alpha  occ. eigenvalues --   -0.42449  -0.41327  -0.40891  -0.40265  -0.39554
 Alpha  occ. eigenvalues --   -0.38802  -0.38403  -0.37862  -0.36220  -0.35949
 Alpha  occ. eigenvalues --   -0.35155  -0.34623  -0.34473  -0.33919  -0.33157
 Alpha  occ. eigenvalues --   -0.32614  -0.31238  -0.30418  -0.30129  -0.29788
 Alpha  occ. eigenvalues --   -0.29170  -0.28985  -0.28132  -0.27397  -0.27181
 Alpha  occ. eigenvalues --   -0.26200
 Alpha virt. eigenvalues --   -0.02330  -0.01820  -0.01654  -0.00190   0.00236
 Alpha virt. eigenvalues --    0.01165   0.01825   0.02267   0.02871   0.03503
 Alpha virt. eigenvalues --    0.03678   0.04292   0.04795   0.05320   0.05525

 Mulliken atomic charges:
              1
     1  O   -0.542810
     2  C    0.005162
     3  C    0.185183
     4  O   -0.547997
     5  H    0.343430
     6  C    0.039586
     7  O   -0.610488
     8  H    0.444413
     9  C   -0.285721
    10  O   -0.534356
    11  H    0.339990
    12  C    0.127764
    13  O   -0.222880
    14  C    0.021591
    15  O   -0.290742
    16  C    0.311594
    17  C    0.186830
    18  O   -0.549366
    19  H    0.371524
    20  C    0.013904
    21  O   -0.565711
    22  H    0.331406
    23  C   -0.326923
    24  O   -0.547627
    25  H    0.357865
    26  C   -0.032785
    27  O   -0.231980
    28  C    0.224838
    29  O   -0.519211
    30  H    0.325106
    31  H    0.134718
    32  H    0.130289
    33  H    0.121173
    34  H    0.122117
    35  H    0.116912
    36  H    0.146396
    37  H    0.159168
    38  H    0.142149
    39  H    0.143800
    40  H    0.113584
    41  H    0.345033
    42  H    0.121224
    43  H    0.125022
    44  H    0.127804
    45  H    0.129023
 Sum of Mulliken atomic charges =   0.00000

 Dipole moment (field-independent basis, Debye):
    X=             -3.1870    Y=             -0.4385    Z=              1.8018  Tot=              3.6873
 Quadrupole moment (field-independent basis, Debye-Ang):
   XX=           -120.6319   YY=           -136.2802   ZZ=           -137.9814
   XY=            -18.2678   XZ=             -2.2953   YZ=              0.3151

  Exact polarizability: 232.990   1.764 200.003   0.382   0.177 144.008
 Approx polarizability: 273.693   1.611 261.303   1.029   1.004 239.153

 ******    7 imaginary frequencies (negative Signs) ******

                     1                      2                      3
                     A                      A                      A
 Frequencies --  -288.2113              -273.4858              -251.6658
 Red. masses --     1.7077                 1.1856                 1.7326
 Frc consts  --     0.0836                 0.0522                 0.0647
 IR Inten    --     0.5279               108.8236                12.9504
 Raman Activ --     0.0347                 1.1663                 0.0938

                     4                      5                      6
                     A                      A                      A
 Frequencies --  -156.5888               -73.6553               -72.0072
 Red. masses --     1.3239                 5.6244                 6.8797
 Frc consts  --     0.0191                 0.0180                 0.0210
 IR Inten    --    86.4963                 0.2193                 1.4570
 Raman Activ --     0.5630                 0.0749                 0.0332

                     7                      8                      9
                     A                      A                      A
 Frequencies --   -20.7181                56.3569                59.8905
 Red. masses --     5.2774                 6.5719                 6.4342
 Frc consts  --     0.0013                 0.0123                 0.0136
 IR Inten    --     6.1315                 1.6054                 2.6699
 Raman Activ --     0.0468                 0.0564                 0.2451

                    10                     11                     12
                     A                      A                      A
 Frequencies --    70.9035                92.5293               103.4855
 Red. masses --     6.4598                 5.4582                 6.1725
 Frc consts  --     0.0191                 0.0275                 0.0389
 IR Inten    --     2.4679                11.1018                 2.0811
 Raman Activ --     0.1340                 0.0677                 0.0227

                    13                     14                     15
                     A                      A                      A
 Frequencies --   159.8479               164.6524               184.3121
 Red. masses --     5.3920                 6.3125                 7.4551
 Frc consts  --     0.0812                 0.1008                 0.1492
 IR Inten    --     3.4656                 2.2238                 0.3741
 Raman Activ --     0.0734                 0.5402                 0.8507

                    16                     17                     18
                     A                      A                      A
 Frequencies --   207.7987               229.7570               263.3770
 Red. masses --     7.1392                 5.7144                 4.5890
 Frc consts  --     0.1816                 0.1777                 0.1876
 IR Inten    --     1.1913                 1.5924                16.1906
 Raman Activ --     2.6717                 0.3407                 0.3199

                    19                     20                     21
                     A                      A                      A
 Frequencies --   276.8987               286.9608               304.5044
 Red. masses --     4.9249                 4.6248                 5.2284
 Frc consts  --     0.2225                 0.2244                 0.2856
 IR Inten    --     2.2204                 0.6364                 1.9039
 Raman Activ --     0.3655                 0.0405                 0.7015

                    22                     23                     24
                     A                      A                      A
 Frequencies --   305.9395               314.1239               325.3405
 Red. masses --     5.8887                 5.8116                 6.5169
 Frc consts  --     0.3247                 0.3379                 0.4064
 IR Inten    --    12.6513                 1.0885                 1.0762
 Raman Activ --     0.7122                 3.3629                 2.9671

                    25                     26                     27
                     A                      A                      A
 Frequencies --   343.4731               356.7374               375.9573
 Red. masses --     5.8538                 4.7180                 6.1319
 Frc consts  --     0.4069                 0.3538                 0.5106
 IR Inten    --    14.6406                 2.1085                 2.9182
 Raman Activ --     3.1041                 0.2997                 0.6977

                    28                     29                     30
                     A                      A                      A
 Frequencies --   404.3827               425.8577               436.9100
 Red. masses --     4.1293                 5.7520                 5.7046
 Frc consts  --     0.3978                 0.6146                 0.6416
 IR Inten    --    10.2776                 4.8899                 3.3721
 Raman Activ --     4.2294                 4.3977                 0.8912

                    31                     32                     33
                     A                      A                      A
 Frequencies --   441.1870               466.3583               491.2361
 Red. masses --     5.0279                 4.1157                 4.0928
 Frc consts  --     0.5766                 0.5274                 0.5819
 IR Inten    --     4.9373                 0.9671                 8.7657
 Raman Activ --     3.5696                 4.4443                 0.7334

                    34                     35                     36
                     A                      A                      A
 Frequencies --   503.6873               519.1104               558.6137
 Red. masses --     4.2376                 3.1742                 3.4982
 Frc consts  --     0.6334                 0.5040                 0.6432
 IR Inten    --    15.7517                 5.5881                25.0015
 Raman Activ --     0.6229                 4.4541                 1.4754

                    37                     38                     39
                     A                      A                      A
 Frequencies --   591.3139               596.7289               615.2621
 Red. masses --     6.5271                 3.4283                 3.1848
 Frc consts  --     1.3446                 0.7193                 0.7103
 IR Inten    --     2.4795                18.8094                19.5054
 Raman Activ --     0.6248                 1.0171                 0.3849

                    40                     41                     42
                     A                      A                      A
 Frequencies --   634.9011               666.3198               692.0027
 Red. masses --     5.8029                 1.0953                 1.3770
 Frc consts  --     1.3782                 0.2865                 0.3885
 IR Inten    --    33.4517               103.1841                96.2446
 Raman Activ --     1.2417                 1.7560                 0.8461

                    43                     44                     45
                     A                      A                      A
 Frequencies --   701.1817               735.6658               761.5395
 Red. masses --     2.5097                 1.0755                 1.0698
 Frc consts  --     0.7270                 0.3430                 0.3655
 IR Inten    --    21.5034                87.3774                92.3171
 Raman Activ --     2.0448                 1.7076                 1.4497

                    46                     47                     48
                     A                      A                      A
 Frequencies --   825.0791               843.5175               848.4220
 Red. masses --     1.1551                 1.3763                 1.3001
 Frc consts  --     0.4633                 0.5770                 0.5514
 IR Inten    --    38.0271                29.7897                36.2582
 Raman Activ --     0.2098                 0.8297                 0.4206

                    49                     50                     51
                     A                      A                      A
 Frequencies --   850.5872               908.5123               934.9431
 Red. masses --     1.5336                 5.8173                 5.1804
 Frc consts  --     0.6537                 2.8290                 2.6680
 IR Inten    --    11.5189                92.5337                53.5670
 Raman Activ --     0.5134                 2.5347                 1.4739

                    52                     53                     54
                     A                      A                      A
 Frequencies --   980.7186               985.5603               988.5392
 Red. masses --     7.2063                 5.5511                 4.5700
 Frc consts  --     4.0837                 3.1768                 2.6312
 IR Inten    --   135.5825                95.5081                34.7499
 Raman Activ --     0.7678                 6.1094                 1.0793

                    55                     56                     57
                     A                      A                      A
 Frequencies --  1003.7697              1010.8613              1019.5144
 Red. masses --     5.3121                 6.8108                 6.7549
 Frc consts  --     3.1534                 4.1005                 4.1367
 IR Inten    --   105.0455                66.1380               277.9780
 Raman Activ --     2.0066                 2.4507                 4.1624

                    58                     59                     60
                     A                      A                      A
 Frequencies --  1033.4979              1061.2573              1065.1807
 Red. masses --     5.1281                 5.1749                 3.7955
 Frc consts  --     3.2272                 3.4339                 2.5373
 IR Inten    --   315.5233                80.6836                46.6237
 Raman Activ --     4.0882                 8.8709                10.3081

                    61                     62                     63
                     A                      A                      A
 Frequencies --  1070.8854              1073.9272              1084.5151
 Red. masses --     3.9586                 5.3484                 3.9220
 Frc consts  --     2.6747                 3.6343                 2.7179
 IR Inten    --   131.1739               101.1409                18.2142
 Raman Activ --     7.5811                 1.7263                 3.2169

                    64                     65                     66
                     A                      A                      A
 Frequencies --  1095.4779              1101.7522              1108.4410
 Red. masses --     2.6566                 2.4875                 3.1030
 Frc consts  --     1.8784                 1.7790                 2.2462
 IR Inten    --    45.2585                37.7279                36.4447
 Raman Activ --    19.3519                 3.1955                 5.0078

                    67                     68                     69
                     A                      A                      A
 Frequencies --  1114.5190              1123.5319              1134.6955
 Red. masses --     2.4905                 2.6323                 2.7778
 Frc consts  --     1.8226                 1.9578                 2.1072
 IR Inten    --    10.3414                21.0277                40.7647
 Raman Activ --     1.0936                 7.4080                 8.2600

                    70                     71                     72
                     A                      A                      A
 Frequencies --  1139.6787              1142.9535              1153.8448
 Red. masses --     2.0836                 3.1458                 1.9912
 Frc consts  --     1.5945                 2.4212                 1.5619
 IR Inten    --    45.9298                38.3701                13.4711
 Raman Activ --     3.7214                 1.3027                 4.0258

                    73                     74                     75
                     A                      A                      A
 Frequencies --  1171.0086              1172.8695              1176.5601
 Red. masses --     1.5632                 1.8589                 1.7697
 Frc consts  --     1.2629                 1.5066                 1.4434
 IR Inten    --     9.0044                 6.7578                27.4224
 Raman Activ --     1.4294                 3.6955                 4.1560

                    76                     77                     78
                     A                      A                      A
 Frequencies --  1190.3113              1207.5282              1218.9130
 Red. masses --     1.4411                 1.2217                 1.3702
 Frc consts  --     1.2030                 1.0495                 1.1994
 IR Inten    --    12.9979                21.2295                 1.2376
 Raman Activ --     3.0495                 2.3948                 1.2151

                    79                     80                     81
                     A                      A                      A
 Frequencies --  1225.2242              1234.0712              1255.6062
 Red. masses --     1.3075                 1.2342                 1.3971
 Frc consts  --     1.1564                 1.1074                 1.2978
 IR Inten    --     4.6777                 8.0542                17.4506
 Raman Activ --     1.5388                 0.9740                 1.6421

                    82                     83                     84
                     A                      A                      A
 Frequencies --  1266.8158              1274.8661              1285.2015
 Red. masses --     1.2760                 1.2440                 1.2778
 Frc consts  --     1.2065                 1.1913                 1.2435
 IR Inten    --    12.8266                 7.2432                12.8370
 Raman Activ --     1.3879                 0.6991                 2.6230

                    85                     86                     87
                     A                      A                      A
 Frequencies --  1294.3918              1296.4764              1303.1827
 Red. masses --     1.2544                 1.2643                 1.2203
 Frc consts  --     1.2383                 1.2521                 1.2210
 IR Inten    --    24.7333                 8.7117                24.0233
 Raman Activ --     5.4855                 1.5328                 7.2903

                    88                     89                     90
                     A                      A                      A
 Frequencies --  1308.1794              1313.0473              1331.4455
 Red. masses --     1.2853                 1.2777                 1.3549
 Frc consts  --     1.2960                 1.2979                 1.4152
 IR Inten    --    19.3566                 8.2659                28.2737
 Raman Activ --     1.6987                12.4806                 2.1852

                    91                     92                     93
                     A                      A                      A
 Frequencies --  1337.6574              1342.3070              1345.7668
 Red. masses --     1.3865                 1.2261                 1.4434
 Frc consts  --     1.4617                 1.3016                 1.5401
 IR Inten    --    11.5768                23.0020                17.3600
 Raman Activ --     6.0083                 5.5244                 8.7285

                    94                     95                     96
                     A                      A                      A
 Frequencies --  1348.6727              1370.3341              1372.5123
 Red. masses --     1.1881                 1.2916                 1.2843
 Frc consts  --     1.2732                 1.4290                 1.4254
 IR Inten    --    36.7497                17.7718                18.7336
 Raman Activ --     2.7052                 2.4420                 2.7545

                    97                     98                     99
                     A                      A                      A
 Frequencies --  1377.2679              1389.3837              1391.9136
 Red. masses --     1.4781                 1.5182                 1.4019
 Frc consts  --     1.6519                 1.7268                 1.6003
 IR Inten    --    36.0018                 6.2242                 0.9908
 Raman Activ --     5.3953                 5.9046                 4.6528

                   100                    101                    102
                     A                      A                      A
 Frequencies --  1426.2074              1448.5772              1460.6358
 Red. masses --     1.3365                 1.3878                 1.2461
 Frc consts  --     1.6017                 1.7157                 1.5663
 IR Inten    --    65.6204                21.1304                20.1062
 Raman Activ --     0.7563                 1.6674                 3.4947

                   103                    104                    105
                     A                      A                      A
 Frequencies --  1465.1542              1468.7424              1470.3405
 Red. masses --     1.3670                 1.1056                 1.1785
 Frc consts  --     1.7290                 1.4053                 1.5011
 IR Inten    --    47.7982                11.5242                19.6964
 Raman Activ --     2.9521                 4.6937                 1.6922

                   106                    107                    108
                     A                      A                      A
 Frequencies --  1479.5770              1516.5968              3242.2263
 Red. masses --     1.3276                 1.2878                 1.0686
 Frc consts  --     1.7124                 1.7452                 6.6182
 IR Inten    --    12.7058                37.7431               981.1024
 Raman Activ --     0.4465                 1.4535               148.8043

                   109                    110                    111
                     A                      A                      A
 Frequencies --  3258.0249              3263.6436              3268.3818
 Red. masses --     1.0575                 1.0617                 1.0815
 Frc consts  --     6.6134                 6.6630                 6.8071
 IR Inten    --    28.7040                25.5855                 3.6447
 Raman Activ --    74.5712               184.9517                52.5157

                   112                    113                    114
                     A                      A                      A
 Frequencies --  3268.6081              3273.5316              3275.1806
 Red. masses --     1.0808                 1.0822                 1.0818
 Frc consts  --     6.8032                 6.8325                 6.8371
 IR Inten    --     8.4243                 9.7451                30.9202
 Raman Activ --   113.1727               118.7603                46.9598

                   115                    116                    117
                     A                      A                      A
 Frequencies --  3280.9344              3282.2372              3285.4250
 Red. masses --     1.0836                 1.0835                 1.0859
 Frc consts  --     6.8724                 6.8776                 6.9059
 IR Inten    --    14.9214                 2.4010                 3.8123
 Raman Activ --     7.8578                79.9086                 6.4299

                   118                    119                    120
                     A                      A                      A
 Frequencies --  3298.5396              3299.0132              3303.7719
 Red. masses --     1.0871                 1.0867                 1.0875
 Frc consts  --     6.9688                 6.9681                 6.9936
 IR Inten    --    61.7438                34.6206                67.0208
 Raman Activ --    33.8957                68.1693                14.9208

                   121                    122                    123
                     A                      A                      A
 Frequencies --  3315.2491              3316.7202              3321.9466
 Red. masses --     1.1049                 1.1044                 1.0675
 Frc consts  --     7.1551                 7.1581                 6.9407
 IR Inten    --    41.9985                58.8914               446.0469
 Raman Activ --    23.6314                40.0253               179.4301

                   124                    125                    126
                     A                      A                      A
 Frequencies --  3362.9936              3367.4069              3369.0618
 Red. masses --     1.0694                 1.0657                 1.0649
 Frc consts  --     7.1262                 7.1197                 7.1215
 IR Inten    --    36.7311                31.1580                42.8968
 Raman Activ --   142.2005               139.4386               101.9709

                   127                    128                    129
                     A                      A                      A
 Frequencies --  3382.5961              3887.9566              3888.7052
 Red. masses --     1.0683                 1.0676                 1.0671
 Frc consts  --     7.2015                 9.5082                 9.5076
 IR Inten    --    70.4055                76.9553                42.2832
 Raman Activ --   158.1271                72.8664               151.0591

 - Thermochemistry -
 -------------------
 Temperature   298.150 Kelvin.  Pressure   1.00000 Atm.
 Atom     1 has atomic number  8 and mass  15.99491

 Molecular mass:   342.11621 amu.
 Principal axes and moments of inertia in atomic units:
                           1         2         3
     Eigenvalues --  4498.46373********************
           X            0.99996  -0.00857   0.00005
           Y            0.00857   0.99996  -0.00176
           Z           -0.00003   0.00176   1.00000
 This molecule is an asymmetric top.
 Rotational symmetry number  1.
 Warning -- assumption of classical behavior for rotation
           may cause significant error
 Rotational temperatures (Kelvin)      0.01925     0.00706     0.00527
 Rotational constants (GHZ):           0.40119     0.14713     0.10982
    7 imaginary frequencies ignored.
 Zero-point vibrational energy     973633.4 (Joules/Mol)
                                  232.70396 (Kcal/Mol)
 Warning -- explicit consideration of  32 degrees of freedom as
           vibrations may cause significant error
 Vibrational temperatures:     81.08    86.17   102.01   133.13   148.89
          (Kelvin)            229.99   236.90   265.18   298.98   330.57
                              378.94   398.39   412.87   438.11   440.18
                              451.95   468.09   494.18   513.26   540.92
                              581.82   612.71   628.62   634.77   670.98
                              706.78   724.69   746.88   803.72   850.77
                              858.56   885.22   913.48   958.68   995.64
                             1008.84  1058.46  1095.68  1187.10  1213.63
                             1220.69  1223.80  1307.14  1345.17  1411.03
                             1418.00  1422.29  1444.20  1454.40  1466.85
                             1486.97  1526.91  1532.56  1540.76  1545.14
                             1560.37  1576.15  1585.17  1594.80  1603.54
                             1616.51  1632.57  1639.74  1644.45  1660.12
                             1684.82  1687.50  1692.81  1712.59  1737.36
                             1753.74  1762.82  1775.55  1806.54  1822.66
                             1834.25  1849.12  1862.34  1865.34  1874.99
                             1882.18  1889.18  1915.65  1924.59  1931.28
                             1936.26  1940.44  1971.60  1974.74  1981.58
                             1999.01  2002.65  2051.99  2084.18  2101.53
                             2108.03  2113.19  2115.49  2128.78  2182.04
                             4664.83  4687.57  4695.65  4702.47  4702.79
                             4709.88  4712.25  4720.53  4722.40  4726.99
                             4745.86  4746.54  4753.38  4769.90  4772.01
                             4779.53  4838.59  4844.94  4847.32  4866.80
                             5593.90  5594.97

 Zero-point correction=                           0.370837 (Hartree/Particle)
 Thermal correction to Energy=                    0.389239
 Thermal correction to Enthalpy=                  0.390183
 Thermal correction to Gibbs Free Energy=         0.325211
 Sum of electronic and zero-point Energies=          -1297.618970
 Sum of electronic and thermal Energies=             -1297.600568
 Sum of electronic and thermal Enthalpies=           -1297.599624
 Sum of electronic and thermal Free Energies=        -1297.664596

                     E (Thermal)             CV                S
                      KCal/Mol        Cal/Mol-Kelvin    Cal/Mol-Kelvin
 Total                  244.251             76.058            136.745
 Electronic               0.000              0.000              0.000
 Translational            0.889              2.981             43.384
 Rotational               0.889              2.981             35.160
 Vibrational            242.474             70.097             58.200
 Vibration     1          0.596              1.975              4.581
 Vibration     2          0.597              1.973              4.461
 Vibration     3          0.598              1.968              4.128
 Vibration     4          0.602              1.955              3.606
 Vibration     5          0.605              1.946              3.388
 Vibration     6          0.622              1.892              2.552
 Vibration     7          0.623              1.886              2.496
 Vibration     8          0.631              1.861              2.284
 Vibration     9          0.641              1.829              2.063
 Vibration    10          0.652              1.796              1.881
 Vibration    11          0.670              1.740              1.639
 Vibration    12          0.678              1.716              1.553
 Vibration    13          0.684              1.698              1.492
 Vibration    14          0.695              1.665              1.392
 Vibration    15          0.696              1.662              1.384
 Vibration    16          0.702              1.647              1.341
 Vibration    17          0.709              1.625              1.283
 Vibration    18          0.722              1.589              1.196
 Vibration    19          0.732              1.561              1.136
 Vibration    20          0.747              1.521              1.055
 Vibration    21          0.770              1.461              0.947
 Vibration    22          0.788              1.414              0.872
 Vibration    23          0.797              1.390              0.836
 Vibration    24          0.801              1.380              0.823
 Vibration    25          0.824              1.325              0.748
 Vibration    26          0.847              1.269              0.680
 Vibration    27          0.859              1.242              0.649
 Vibration    28          0.874              1.208              0.612
 Vibration    29          0.914              1.121              0.527
 Vibration    30          0.949              1.050              0.465
 Vibration    31          0.955              1.039              0.455
 Vibration    32          0.975              1.000              0.424

 Normal termination of Gaussian 09 at Thu Mar 24 12:35:07 2016.
