 Gaussian 09, Revision B.01,
 Gaussian 09:  EM64L-G09RevB.01 12-Aug-2010

 ------------------------------------------------
 # freq=raman b3lyp/6-31+g(d,p) geom=connectivity
 ------------------------------------------------

 -------------
 300 10000.com
 -------------
 Symbolic Z-matrix:
 Charge =  0 Multiplicity = 1

                         Standard orientation:
 ---------------------------------------------------------------------
 Center     Atomic      Atomic             Coordinates (Angstroms)
 Number     Number       Type             X           Y           Z
 ---------------------------------------------------------------------
      1          8           0       -4.994999   -0.365233    0.446584
      2          6           0       -3.691352   -0.164280   -0.119167
      3          6           0       -3.318683    1.252610    0.287297
      4          8           0       -4.177436    2.256342   -0.272787
      5          1           0       -5.113157    1.915851   -0.361412
      6          6           0       -1.898291    1.570743   -0.152211
      7          8           0       -1.392634    2.775474    0.440404
      8          1           0       -0.523563    2.977965   -0.011793
      9          6           0       -2.993935   -2.557930   -0.168853
     10          8           0       -4.063267   -3.373060    0.332706
     11          1           0       -3.888933   -4.261961   -0.089093
     12          6           0       -2.679353   -1.178945    0.387539
     13          8           0       -1.348116   -0.919987   -0.079221
     14          6           0       -0.949049    0.432848    0.184575
     15          8           0        0.200463    0.505695   -0.672026
     16          6           0        1.454809    0.189588   -0.052140
     17          6           0        2.034905   -1.142657   -0.501304
     18          8           0        1.107079   -2.237266   -0.514925
     19          1           0        0.245987   -1.813710   -0.796118
     20          6           0        3.371882   -1.533812    0.106544
     21          8           0        4.111306   -2.723284   -0.202178
     22          1           0        4.948394   -2.635216    0.337883
     23          6           0        2.261973    2.597953    0.123007
     24          8           0        1.186492    3.412809   -0.365299
     25          1           0        1.554031    4.327714   -0.536825
     26          6           0        2.551412    1.191076   -0.375370
     27          8           0        3.670803    0.884946    0.469432
     28          6           0        4.283865   -0.322834   -0.004624
     29          8           0        5.427432   -0.485591    0.847569
     30          1           0        6.210118   -0.625450    0.309571
     31          1           0       -5.633232   -0.495609   -0.258584
     32          1           0       -3.752713   -0.224467   -1.185710
     33          1           0       -3.367450    1.322121    1.353923
     34          1           0       -1.900766    1.698621   -1.214539
     35          1           0       -0.638400    0.519342    1.204828
     36          1           0       -2.692406   -1.205564    1.457128
     37          1           0       -2.099083   -3.136531   -0.072104
     38          1           0       -3.174200   -2.429832   -1.215751
     39          1           0        3.158666    3.161059   -0.031116
     40          1           0        2.121497    2.518382    1.180757
     41          1           0        2.820172    1.178874   -1.410995
     42          1           0        1.315223    0.163365    1.008392
     43          1           0        2.260609   -0.984026   -1.535129
     44          1           0        3.162369   -1.627173    1.151670
     45          1           0        4.600761   -0.196691   -1.018806
 ---------------------------------------------------------------------

 SCF Done:  E(RB3LYP) =  -1297.92705692     A.U. after   14 cycles

 The electronic state is 1-A.
 Alpha  occ. eigenvalues --  -19.19623 -19.19600 -19.19575 -19.19473 -19.19281
 Alpha  occ. eigenvalues --  -19.18091 -19.17480 -19.17015 -19.16251 -19.15014
 Alpha  occ. eigenvalues --  -19.14804 -10.31430 -10.30902 -10.26847 -10.26503
 Alpha  occ. eigenvalues --  -10.26190 -10.25971 -10.25489 -10.25419 -10.25087
 Alpha  occ. eigenvalues --  -10.24696 -10.24593 -10.24231  -1.10638  -1.10020
 Alpha  occ. eigenvalues --   -1.05786  -1.05438  -1.04501  -1.04097  -1.03076
 Alpha  occ. eigenvalues --   -1.02756  -1.02239  -1.01126  -1.00470  -0.82611
 Alpha  occ. eigenvalues --   -0.80817  -0.80099  -0.78540  -0.72046  -0.69950
 Alpha  occ. eigenvalues --   -0.67542  -0.65327  -0.63608  -0.62966  -0.61726
 Alpha  occ. eigenvalues --   -0.60473  -0.56863  -0.55998  -0.55729  -0.54807
 Alpha  occ. eigenvalues --   -0.54496  -0.53474  -0.53222  -0.51757  -0.51129
 Alpha  occ. eigenvalues --   -0.51038  -0.50276  -0.49674  -0.48854  -0.46572
 Alpha  occ. eigenvalues --   -0.46230  -0.45149  -0.44360  -0.44133  -0.43416
 Alpha  occ. eigenvalues --   -0.42839  -0.42081  -0.41436  -0.40527  -0.40007
 Alpha  occ. eigenvalues --   -0.39588  -0.38354  -0.37783  -0.36424  -0.36009
 Alpha  occ. eigenvalues --   -0.35775  -0.35511  -0.34693  -0.34587  -0.33970
 Alpha  occ. eigenvalues --   -0.33364  -0.31831  -0.31305  -0.30732  -0.30167
 Alpha  occ. eigenvalues --   -0.29801  -0.28822  -0.27999  -0.27967  -0.27006
 Alpha  occ. eigenvalues --   -0.26568
 Alpha virt. eigenvalues --   -0.02406  -0.02265  -0.02178  -0.00538   0.00046
 Alpha virt. eigenvalues --    0.00869   0.01729   0.02133   0.03265   0.03426
 Alpha virt. eigenvalues --    0.03929   0.04160   0.04747   0.05317   0.05526

 Mulliken atomic charges:
              1
     1  O   -0.516850
     2  C   -0.243707
     3  C    0.100200
     4  O   -0.508989
     5  H    0.342347
     6  C   -0.021569
     7  O   -0.519145
     8  H    0.432347
     9  C   -0.105931
    10  O   -0.508391
    11  H    0.344182
    12  C    0.193239
    13  O   -0.401887
    14  C    0.326229
    15  O   -0.316539
    16  C   -0.080736
    17  C    0.013299
    18  O   -0.472101
    19  H    0.392175
    20  C   -0.021212
    21  O   -0.481956
    22  H    0.352316
    23  C   -0.174869
    24  O   -0.625075
    25  H    0.393793
    26  C    0.139189
    27  O   -0.287964
    28  C    0.185167
    29  O   -0.575586
    30  H    0.367985
    31  H    0.364041
    32  H    0.134698
    33  H    0.146685
    34  H    0.152682
    35  H    0.126956
    36  H    0.144251
    37  H    0.144735
    38  H    0.121031
    39  H    0.131290
    40  H    0.155732
    41  H    0.140166
    42  H    0.127833
    43  H    0.119038
    44  H    0.143960
    45  H    0.126942
 Sum of Mulliken atomic charges =   0.00000

 Dipole moment (field-independent basis, Debye):
    X=              2.6912    Y=              1.0280    Z=             -3.2955  Tot=              4.3772
 Quadrupole moment (field-independent basis, Debye-Ang):
   XX=           -115.1592   YY=           -143.0054   ZZ=           -140.4098
   XY=             18.4175   XZ=              5.7044   YZ=             -2.2863

  Exact polarizability: 226.342  -1.726 193.155   1.624  -0.128 141.467
 Approx polarizability: 264.330  -1.866 249.665   1.512  -0.170 231.535

 ******    7 imaginary frequencies (negative Signs) ******

                     1                      2                      3
                     A                      A                      A
 Frequencies --  -308.8168              -280.6645              -261.6380
 Red. masses --     1.4400                 1.4088                 1.6715
 Frc consts  --     0.0809                 0.0654                 0.0674
 IR Inten    --    66.3663                50.2562                 1.9736
 Raman Activ --     0.5165                 0.5467                 0.0400

                     4                      5                      6
                     A                      A                      A
 Frequencies --  -251.6960               -81.6252               -60.4269
 Red. masses --     1.2208                 6.2702                 5.8622
 Frc consts  --     0.0456                 0.0246                 0.0126
 IR Inten    --   129.8829                 1.5491                 0.7300
 Raman Activ --     0.9934                 0.0860                 0.0538

                     7                      8                      9
                     A                      A                      A
 Frequencies --   -42.8931                47.2537                51.7639
 Red. masses --     6.5110                 7.0113                 6.7840
 Frc consts  --     0.0071                 0.0092                 0.0107
 IR Inten    --     0.2305                 0.4631                 0.5993
 Raman Activ --     0.0231                 0.1239                 0.0371

                    10                     11                     12
                     A                      A                      A
 Frequencies --    66.8033                88.2695               124.8973
 Red. masses --     6.6122                 6.4711                 6.1751
 Frc consts  --     0.0174                 0.0297                 0.0568
 IR Inten    --     2.1542                 0.2674                 0.7776
 Raman Activ --     0.1007                 0.1183                 0.0962

                    13                     14                     15
                     A                      A                      A
 Frequencies --   145.0248               170.6472               183.0818
 Red. masses --     6.2950                 6.9553                 6.0107
 Frc consts  --     0.0780                 0.1193                 0.1187
 IR Inten    --     3.7834                 0.2506                 3.9392
 Raman Activ --     0.3946                 0.2786                 0.7079

                    16                     17                     18
                     A                      A                      A
 Frequencies --   200.6370               232.8081               258.0066
 Red. masses --     6.7681                 6.4134                 4.2896
 Frc consts  --     0.1605                 0.2048                 0.1682
 IR Inten    --     0.5054                 4.1689                17.0924
 Raman Activ --     1.6624                 1.1363                 0.1122

                    19                     20                     21
                     A                      A                      A
 Frequencies --   278.2379               285.2763               301.3031
 Red. masses --     4.1222                 5.5970                 4.6360
 Frc consts  --     0.1880                 0.2684                 0.2480
 IR Inten    --     3.9388                 3.0341                 1.2075
 Raman Activ --     0.1843                 0.5542                 0.4095

                    22                     23                     24
                     A                      A                      A
 Frequencies --   306.5694               322.6548               324.5734
 Red. masses --     6.0683                 6.2171                 5.2258
 Frc consts  --     0.3360                 0.3813                 0.3244
 IR Inten    --     4.4143                 1.0418                 4.3673
 Raman Activ --     0.6338                 4.1711                 1.3074

                    25                     26                     27
                     A                      A                      A
 Frequencies --   346.1587               354.4418               377.6784
 Red. masses --     6.2545                 5.3914                 6.8683
 Frc consts  --     0.4416                 0.3991                 0.5772
 IR Inten    --     9.7397                 2.9586                 1.9411
 Raman Activ --     1.8846                 3.2508                 1.6419

                    28                     29                     30
                     A                      A                      A
 Frequencies --   396.9410               422.5993               433.2955
 Red. masses --     4.5528                 5.9792                 4.7929
 Frc consts  --     0.4226                 0.6291                 0.5302
 IR Inten    --    10.6508                 3.1000                 1.0901
 Raman Activ --     0.9716                 7.9963                 1.6795

                    31                     32                     33
                     A                      A                      A
 Frequencies --   443.5551               472.6374               493.5827
 Red. masses --     4.8693                 4.2192                 4.3006
 Frc consts  --     0.5644                 0.5553                 0.6173
 IR Inten    --     4.7230                 8.2210                18.5716
 Raman Activ --     3.3470                 2.2780                 0.1799

                    34                     35                     36
                     A                      A                      A
 Frequencies --   505.4954               532.3033               573.0432
 Red. masses --     4.1125                 2.9518                 4.0921
 Frc consts  --     0.6191                 0.4928                 0.7917
 IR Inten    --     8.8009                 7.4518                 7.5652
 Raman Activ --     3.8619                 3.4644                 1.7501

                    37                     38                     39
                     A                      A                      A
 Frequencies --   579.2811               598.3415               619.2715
 Red. masses --     2.8976                 6.3473                 5.1775
 Frc consts  --     0.5729                 1.3389                 1.1699
 IR Inten    --    49.5646                 2.6680                 8.9337
 Raman Activ --     0.7923                 0.9013                 0.6569

                    40                     41                     42
                     A                      A                      A
 Frequencies --   639.7042               667.9376               674.6522
 Red. masses --     3.4604                 1.1186                 1.1685
 Frc consts  --     0.8343                 0.2940                 0.3134
 IR Inten    --    50.6940                62.8921               112.7529
 Raman Activ --     1.0192                 1.5675                 2.2703

                    43                     44                     45
                     A                      A                      A
 Frequencies --   697.4018               699.7095               744.5617
 Red. masses --     2.9514                 1.1981                 1.0946
 Frc consts  --     0.8458                 0.3456                 0.3575
 IR Inten    --    28.5218               106.2449               170.4436
 Raman Activ --     1.8539                 1.2224                 2.7511

                    46                     47                     48
                     A                      A                      A
 Frequencies --   745.5978               844.3418               855.3420
 Red. masses --     1.0666                 1.5240                 1.7878
 Frc consts  --     0.3494                 0.6401                 0.7707
 IR Inten    --    65.7791                28.8330                 6.5145
 Raman Activ --     2.5285                 0.6634                 0.5922

                    49                     50                     51
                     A                      A                      A
 Frequencies --   886.0790               942.5775               968.4271
 Red. masses --     1.1664                 4.7284                 4.4957
 Frc consts  --     0.5396                 2.4752                 2.4842
 IR Inten    --    52.9532                69.1055                11.5917
 Raman Activ --     1.1762                 2.3978                 0.9059

                    52                     53                     54
                     A                      A                      A
 Frequencies --   976.7739               995.1435              1003.4198
 Red. masses --     5.5208                 6.1156                 6.0220
 Frc consts  --     3.1034                 3.5683                 3.5724
 IR Inten    --    25.1475                69.9451               119.6975
 Raman Activ --     2.5831                 1.5465                 0.8182

                    55                     56                     57
                     A                      A                      A
 Frequencies --  1006.2344              1028.4090              1036.3677
 Red. masses --     4.6865                 6.4964                 4.4412
 Frc consts  --     2.7957                 4.0482                 2.8104
 IR Inten    --   427.5991                12.8474               167.7427
 Raman Activ --     1.8823                 2.2663                 2.7001

                    58                     59                     60
                     A                      A                      A
 Frequencies --  1048.9510              1063.2809              1077.3240
 Red. masses --     3.0417                 3.6675                 4.3035
 Frc consts  --     1.9719                 2.4429                 2.9429
 IR Inten    --   201.1814               177.4335                57.3244
 Raman Activ --     3.3698                 4.5590                 1.0547

                    61                     62                     63
                     A                      A                      A
 Frequencies --  1078.8885              1083.9838              1086.7337
 Red. masses --     4.7627                 4.2471                 4.9771
 Frc consts  --     3.2663                 2.9403                 3.4632
 IR Inten    --    13.6218                16.2330               167.7958
 Raman Activ --     2.0097                 6.5358                 9.6505

                    64                     65                     66
                     A                      A                      A
 Frequencies --  1109.1728              1116.8095              1122.5990
 Red. masses --     3.4723                 2.3362                 3.0994
 Frc consts  --     2.5169                 1.7168                 2.3013
 IR Inten    --     3.8222                 2.7830               131.8450
 Raman Activ --    15.5924                 4.2319                 8.9925

                    67                     68                     69
                     A                      A                      A
 Frequencies --  1131.2025              1136.4077              1143.1957
 Red. masses --     2.1216                 2.2116                 1.8810
 Frc consts  --     1.5995                 1.6828                 1.4484
 IR Inten    --    34.6774                20.4625                43.4219
 Raman Activ --     5.6429                 3.8731                 4.2964

                    70                     71                     72
                     A                      A                      A
 Frequencies --  1147.1021              1157.7982              1162.8028
 Red. masses --     2.3112                 2.0696                 2.5598
 Frc consts  --     1.7918                 1.6346                 2.0393
 IR Inten    --     9.8046                33.5019                 9.5585
 Raman Activ --     3.4383                 4.4367                 5.7058

                    73                     74                     75
                     A                      A                      A
 Frequencies --  1166.9403              1168.8266              1191.7073
 Red. masses --     2.1127                 1.8366                 2.9182
 Frc consts  --     1.6950                 1.4783                 2.4418
 IR Inten    --   104.5002                 1.4328                 6.2206
 Raman Activ --     5.3516                 1.9812                 2.0840

                    76                     77                     78
                     A                      A                      A
 Frequencies --  1210.4038              1212.2946              1230.8318
 Red. masses --     1.3468                 1.5869                 1.3002
 Frc consts  --     1.1626                 1.3741                 1.1606
 IR Inten    --    14.9840                19.3398                 0.4776
 Raman Activ --     1.2529                 3.9172                 0.9132

                    79                     80                     81
                     A                      A                      A
 Frequencies --  1244.8352              1245.5431              1270.1610
 Red. masses --     1.2369                 1.4326                 1.2940
 Frc consts  --     1.1293                 1.3095                 1.2300
 IR Inten    --     2.6431                 5.2844                13.6671
 Raman Activ --     1.5698                 3.6320                 0.5342

                    82                     83                     84
                     A                      A                      A
 Frequencies --  1275.4435              1296.5058              1299.2642
 Red. masses --     1.4241                 1.2137                 1.3878
 Frc consts  --     1.3649                 1.2020                 1.3802
 IR Inten    --    29.1799                53.4390                17.0068
 Raman Activ --     1.0492                 8.9914                 1.7842

                    85                     86                     87
                     A                      A                      A
 Frequencies --  1303.5792              1309.0575              1312.9743
 Red. masses --     1.3462                 1.2060                 1.2558
 Frc consts  --     1.3479                 1.2176                 1.2755
 IR Inten    --    10.2755                 5.5849                16.1853
 Raman Activ --     1.7752                 3.5870                 6.9409

                    88                     89                     90
                     A                      A                      A
 Frequencies --  1316.2968              1337.4788              1340.5614
 Red. masses --     1.3180                 1.3122                 1.2354
 Frc consts  --     1.3454                 1.3830                 1.3081
 IR Inten    --    33.0271                17.6043                 7.5239
 Raman Activ --     3.5857                 6.3917                 7.4598

                    91                     92                     93
                     A                      A                      A
 Frequencies --  1356.1246              1358.0822              1364.0697
 Red. masses --     1.4998                 1.1350                 1.3178
 Frc consts  --     1.6251                 1.2334                 1.4447
 IR Inten    --    11.6209                44.6852                 6.3345
 Raman Activ --     7.5661                 2.5987                 9.0445

                    94                     95                     96
                     A                      A                      A
 Frequencies --  1375.3155              1380.1129              1388.5489
 Red. masses --     1.4559                 1.2352                 1.2158
 Frc consts  --     1.6225                 1.3861                 1.3811
 IR Inten    --     7.5747                25.3421                 9.1927
 Raman Activ --     7.2207                 6.6132                 3.5851

                    97                     98                     99
                     A                      A                      A
 Frequencies --  1392.5644              1396.5124              1405.2924
 Red. masses --     1.2224                 1.3709                 1.5643
 Frc consts  --     1.3967                 1.5752                 1.8201
 IR Inten    --     4.5291                76.0653                12.1643
 Raman Activ --     0.5345                 2.4188                 4.5655

                   100                    101                    102
                     A                      A                      A
 Frequencies --  1413.2079              1456.1300              1460.4020
 Red. masses --     1.3926                 1.3606                 1.2904
 Frc consts  --     1.6386                 1.6997                 1.6215
 IR Inten    --     3.4292                30.8226                10.1811
 Raman Activ --     6.1158                 0.7647                 3.2875

                   103                    104                    105
                     A                      A                      A
 Frequencies --  1474.3436              1480.4117              1481.8584
 Red. masses --     1.1615                 1.2613                 1.1341
 Frc consts  --     1.4875                 1.6287                 1.4673
 IR Inten    --     5.9435                52.5173                 5.9099
 Raman Activ --     2.9191                 0.6581                 7.2016

                   106                    107                    108
                     A                      A                      A
 Frequencies --  1490.7240              1506.6841              3248.8894
 Red. masses --     1.3008                 1.3060                 1.0796
 Frc consts  --     1.7032                 1.7468                 6.7143
 IR Inten    --    11.7256                40.3100                24.7439
 Raman Activ --     0.4056                 1.8422                85.5377

                   109                    110                    111
                     A                      A                      A
 Frequencies --  3262.0046              3273.8099              3277.3102
 Red. masses --     1.0590                 1.0597                 1.0823
 Frc consts  --     6.6394                 6.6916                 6.8492
 IR Inten    --    31.7495                61.2223                 7.3976
 Raman Activ --    74.0953                70.1906                48.8567

                   112                    113                    114
                     A                      A                      A
 Frequencies --  3293.6885              3294.2161              3296.2148
 Red. masses --     1.0843                 1.0840                 1.0849
 Frc consts  --     6.9304                 6.9307                 6.9452
 IR Inten    --     2.6797                 9.2027                 3.1900
 Raman Activ --   154.3572                19.8427                45.7811

                   115                    116                    117
                     A                      A                      A
 Frequencies --  3296.6748              3300.9450              3304.0696
 Red. masses --     1.0869                 1.0856                 1.0879
 Frc consts  --     6.9595                 6.9692                 6.9974
 IR Inten    --    34.1506                15.3750                33.6843
 Raman Activ --     4.7398               184.9500                16.4933

                   118                    119                    120
                     A                      A                      A
 Frequencies --  3308.7415              3311.8177              3315.3377
 Red. masses --     1.0881                 1.0875                 1.0764
 Frc consts  --     7.0183                 7.0278                 6.9709
 IR Inten    --    50.8448               136.0099               380.4663
 Raman Activ --    34.8850                62.2460               135.7719

                   121                    122                    123
                     A                      A                      A
 Frequencies --  3319.7766              3331.2342              3369.2340
 Red. masses --     1.0932                 1.1035                 1.0655
 Frc consts  --     7.0986                 7.2148                 7.1264
 IR Inten    --   104.7449                85.3558               311.6783
 Raman Activ --    29.2847                15.3490               112.8753

                   124                    125                    126
                     A                      A                      A
 Frequencies --  3382.3998              3389.1271              3392.4371
 Red. masses --     1.0651                 1.0694                 1.0660
 Frc consts  --     7.1795                 7.2373                 7.2281
 IR Inten    --    48.7247                52.4113                22.3174
 Raman Activ --    98.7768               163.0022               124.2375

                   127                    128                    129
                     A                      A                      A
 Frequencies --  3399.3681              3916.2668              3920.8080
 Red. masses --     1.0666                 1.0679                 1.0676
 Frc consts  --     7.2617                 9.6496                 9.6693
 IR Inten    --    41.4554                64.9408                72.2228
 Raman Activ --   132.7702                88.2772               111.6175

 - Thermochemistry -
 -------------------
 Temperature   298.150 Kelvin.  Pressure   1.00000 Atm.
 Atom     1 has atomic number  8 and mass  15.99491

 Molecular mass:   342.11621 amu.
 Principal axes and moments of inertia in atomic units:
                           1         2         3
     Eigenvalues --  4535.37743********************
           X            0.99996   0.00838   0.00090
           Y           -0.00838   0.99996   0.00095
           Z           -0.00089  -0.00096   1.00000
 This molecule is an asymmetric top.
 Rotational symmetry number  1.
 Warning -- assumption of classical behavior for rotation
           may cause significant error
 Rotational temperatures (Kelvin)      0.01910     0.00706     0.00531
 Rotational constants (GHZ):           0.39793     0.14702     0.11055
    7 imaginary frequencies ignored.
 Zero-point vibrational energy     979339.8 (Joules/Mol)
                                  234.06783 (Kcal/Mol)
 Warning -- explicit consideration of  32 degrees of freedom as
           vibrations may cause significant error
 Vibrational temperatures:     67.99    74.48    96.11   127.00   179.70
          (Kelvin)            208.66   245.52   263.41   288.67   334.96
                              371.21   400.32   410.45   433.51   441.08
                              464.23   466.99   498.04   509.96   543.39
                              571.11   608.03   623.41   638.18   680.02
                              710.15   727.29   765.86   824.48   833.46
                              860.88   890.99   920.39   961.01   970.67
                             1003.40  1006.72  1071.26  1072.75  1214.82
                             1230.64  1274.87  1356.16  1393.35  1405.36
                             1431.79  1443.70  1447.75  1479.65  1491.10
                             1509.20  1529.82  1550.03  1552.28  1559.61
                             1563.57  1595.85  1606.84  1615.17  1627.55
                             1635.04  1644.80  1650.42  1665.81  1673.01
                             1678.96  1681.68  1714.60  1741.50  1744.22
                             1770.89  1791.04  1792.06  1827.48  1835.08
                             1865.38  1869.35  1875.56  1883.44  1889.07
                             1893.86  1924.33  1928.77  1951.16  1953.97
                             1962.59  1978.77  1985.67  1997.81  2003.59
                             2009.27  2021.90  2033.29  2095.04  2101.19
                             2121.25  2129.98  2132.06  2144.82  2167.78
                             4674.42  4693.29  4710.28  4715.31  4738.88
                             4739.64  4742.51  4743.17  4749.32  4753.81
                             4760.54  4764.96  4770.03  4776.41  4792.90
                             4847.57  4866.51  4876.19  4880.95  4890.93
                             5634.63  5641.16

 Zero-point correction=                           0.373011 (Hartree/Particle)
 Thermal correction to Energy=                    0.391426
 Thermal correction to Enthalpy=                  0.392370
 Thermal correction to Gibbs Free Energy=         0.327110
 Sum of electronic and zero-point Energies=          -1297.554046
 Sum of electronic and thermal Energies=             -1297.535631
 Sum of electronic and thermal Enthalpies=           -1297.534687
 Sum of electronic and thermal Free Energies=        -1297.599947

                     E (Thermal)             CV                S
                      KCal/Mol        Cal/Mol-Kelvin    Cal/Mol-Kelvin
 Total                  245.623             75.760            137.351
 Electronic               0.000              0.000              0.000
 Translational            0.889              2.981             43.384
 Rotational               0.889              2.981             35.162
 Vibrational            243.846             69.798             58.805
 Vibration     1          0.595              1.979              4.929
 Vibration     2          0.596              1.977              4.749
 Vibration     3          0.598              1.970              4.245
 Vibration     4          0.601              1.957              3.698
 Vibration     5          0.610              1.928              3.023
 Vibration     6          0.616              1.908              2.737
 Vibration     7          0.626              1.879              2.428
 Vibration     8          0.631              1.863              2.297
 Vibration     9          0.638              1.839              2.127
 Vibration    10          0.654              1.791              1.857
 Vibration    11          0.667              1.749              1.675
 Vibration    12          0.679              1.714              1.544
 Vibration    13          0.683              1.701              1.502
 Vibration    14          0.693              1.671              1.410
 Vibration    15          0.697              1.661              1.381
 Vibration    16          0.708              1.630              1.297
 Vibration    17          0.709              1.626              1.287
 Vibration    18          0.724              1.583              1.184
 Vibration    19          0.730              1.566              1.146
 Vibration    20          0.748              1.518              1.048
 Vibration    21          0.763              1.477              0.974
 Vibration    22          0.785              1.421              0.883
 Vibration    23          0.794              1.398              0.848
 Vibration    24          0.803              1.375              0.816
 Vibration    25          0.830              1.311              0.730
 Vibration    26          0.849              1.264              0.674
 Vibration    27          0.861              1.238              0.645
 Vibration    28          0.887              1.179              0.582
 Vibration    29          0.929              1.090              0.498
 Vibration    30          0.936              1.076              0.487
 Vibration    31          0.956              1.035              0.453
 Vibration    32          0.979              0.991              0.418

 Normal termination of Gaussian 09 at Thu Jan 21 05:34:19 2016.
