 Gaussian 09, Revision B.01,
 Gaussian 09:  EM64L-G09RevB.01 12-Aug-2010

 --------------------------------------------------
 # freq=raman b3lyp/6-31+g(2df,p) geom=connectivity
 --------------------------------------------------

 ------------
 280 6000.com
 ------------
 Symbolic Z-matrix:
 Charge =  0 Multiplicity = 1

                         Standard orientation:
 ---------------------------------------------------------------------
 Center     Atomic      Atomic             Coordinates (Angstroms)
 Number     Number       Type             X           Y           Z
 ---------------------------------------------------------------------
      1          8           0        4.949880   -0.469583   -0.454179
      2          6           0        3.727596   -0.119989    0.200577
      3          6           0        3.217291    1.207129   -0.335677
      4          8           0        4.175021    2.238932   -0.056489
      5          1           0        5.103040    1.922304   -0.255780
      6          6           0        1.837171    1.602056    0.164912
      7          8           0        1.319130    2.798105   -0.434667
      8          1           0        0.397687    2.983175   -0.093266
      9          6           0        2.925495   -2.644851    0.198105
     10          8           0        4.138248   -3.061230   -0.445377
     11          1           0        4.223300   -4.041956   -0.266191
     12          6           0        2.669653   -1.173112   -0.086716
     13          8           0        1.450843   -0.800197    0.572520
     14          6           0        0.937463    0.393129   -0.035827
     15          8           0       -0.295365    0.558535    0.680406
     16          6           0       -1.542059    0.205259    0.063983
     17          6           0       -2.020714   -1.192870    0.422710
     18          8           0       -0.971219   -2.161945    0.283396
     19          1           0       -0.095056   -1.788933    0.587866
     20          6           0       -3.365103   -1.491007   -0.221147
     21          8           0       -3.901203   -2.774391    0.132081
     22          1           0       -4.672829   -3.087145   -0.421829
     23          6           0       -2.175817    2.528236   -0.173547
     24          8           0       -1.113136    3.278371    0.432684
     25          1           0       -1.168650    4.264431    0.274618
     26          6           0       -2.638711    1.200434    0.404181
     27          8           0       -3.858294    0.909389   -0.294378
     28          6           0       -4.368897   -0.385326    0.056306
     29          8           0       -5.441016   -0.472948   -0.893943
     30          1           0       -6.275796   -0.558138   -0.427591
     31          1           0       -4.729195   -0.411681    1.063476
     32          1           0       -3.203958   -1.504676   -1.278854
     33          1           0       -2.222455   -1.158452    1.472956
     34          1           0       -1.396361    0.234362   -0.995651
     35          1           0       -2.796264    1.267654    1.460381
     36          1           0       -3.031751    3.169729   -0.201166
     37          1           0       -1.885101    2.341396   -1.186205
     38          1           0        0.747630    0.232350   -1.076506
     39          1           0        1.913113    1.777805    1.217645
     40          1           0        3.151972    1.113744   -1.399591
     41          1           0        3.889282   -0.046741    1.255752
     42          1           0        5.610541   -0.699826    0.203176
     43          1           0        2.474799   -1.109761   -1.136915
     44          1           0        3.014767   -2.792219    1.254141
     45          1           0        2.107955   -3.226250   -0.174054
 ---------------------------------------------------------------------

 SCF Done:  E(RB3LYP) =  -1298.01890297     A.U. after   13 cycles

 The electronic state is 1-A.
 Alpha  occ. eigenvalues --  -19.18917 -19.18469 -19.18269 -19.17700 -19.17512
 Alpha  occ. eigenvalues --  -19.16317 -19.16184 -19.16181 -19.14532 -19.13641
 Alpha  occ. eigenvalues --  -19.12987 -10.30692 -10.30225 -10.25981 -10.25311
 Alpha  occ. eigenvalues --  -10.25248 -10.25087 -10.24872 -10.24849 -10.24160
 Alpha  occ. eigenvalues --  -10.24105 -10.24025 -10.23931  -1.09924  -1.09312
 Alpha  occ. eigenvalues --   -1.05563  -1.04865  -1.03559  -1.03072  -1.02645
 Alpha  occ. eigenvalues --   -1.02216  -1.01265  -1.00161  -0.99429  -0.82277
 Alpha  occ. eigenvalues --   -0.80021  -0.79624  -0.78068  -0.71676  -0.69978
 Alpha  occ. eigenvalues --   -0.67278  -0.64523  -0.63496  -0.62114  -0.61349
 Alpha  occ. eigenvalues --   -0.60237  -0.56512  -0.55769  -0.55115  -0.54477
 Alpha  occ. eigenvalues --   -0.53759  -0.53705  -0.52708  -0.51495  -0.50956
 Alpha  occ. eigenvalues --   -0.50525  -0.49785  -0.49207  -0.48804  -0.46354
 Alpha  occ. eigenvalues --   -0.45822  -0.45186  -0.44210  -0.43802  -0.43136
 Alpha  occ. eigenvalues --   -0.42208  -0.41507  -0.40695  -0.40032  -0.39218
 Alpha  occ. eigenvalues --   -0.38866  -0.37811  -0.37053  -0.36480  -0.35427
 Alpha  occ. eigenvalues --   -0.34656  -0.34473  -0.33859  -0.33500  -0.33072
 Alpha  occ. eigenvalues --   -0.32807  -0.31624  -0.31130  -0.30351  -0.29613
 Alpha  occ. eigenvalues --   -0.29308  -0.28562  -0.28265  -0.27236  -0.26334
 Alpha  occ. eigenvalues --   -0.26294
 Alpha virt. eigenvalues --   -0.01812  -0.01685  -0.01614  -0.00087   0.00220
 Alpha virt. eigenvalues --    0.01030   0.02013   0.02308   0.02771   0.03496
 Alpha virt. eigenvalues --    0.03870   0.04400   0.04998   0.05382   0.05699

 Mulliken atomic charges:
              1
     1  O   -0.433971
     2  C   -0.086194
     3  C    0.148823
     4  O   -0.479039
     5  H    0.351457
     6  C   -0.308493
     7  O   -0.511832
     8  H    0.460470
     9  C   -0.214947
    10  O   -0.423380
    11  H    0.343947
    12  C   -0.186014
    13  O   -0.073465
    14  C    0.092550
    15  O   -0.048356
    16  C    0.192308
    17  C   -0.082997
    18  O   -0.480544
    19  H    0.406537
    20  C   -0.021375
    21  O   -0.470221
    22  H    0.352683
    23  C   -0.291975
    24  O   -0.529817
    25  H    0.378599
    26  C   -0.209803
    27  O   -0.002837
    28  C    0.002890
    29  O   -0.464001
    30  H    0.342576
    31  H    0.137559
    32  H    0.135306
    33  H    0.114265
    34  H    0.113882
    35  H    0.138812
    36  H    0.146058
    37  H    0.159198
    38  H    0.132766
    39  H    0.135975
    40  H    0.128810
    41  H    0.126895
    42  H    0.348851
    43  H    0.118500
    44  H    0.146957
    45  H    0.162586
 Sum of Mulliken atomic charges =   0.00000

 Dipole moment (field-independent basis, Debye):
    X=             -2.4078    Y=             -0.6684    Z=              1.7746  Tot=              3.0649
 Quadrupole moment (field-independent basis, Debye-Ang):
   XX=           -112.3625   YY=           -134.6544   ZZ=           -140.9890
   XY=            -17.1294   XZ=              4.3074   YZ=              1.3439

  Exact polarizability: 235.210   2.285 197.319   1.067  -0.591 144.052
 Approx polarizability: 276.040   1.830 257.255   1.150  -0.796 241.047

 ******    6 imaginary frequencies (negative Signs) ******

                     1                      2                      3
                     A                      A                      A
 Frequencies --  -251.0849              -247.5047              -214.4552
 Red. masses --     1.8202                 1.3366                 1.1676
 Frc consts  --     0.0676                 0.0482                 0.0316
 IR Inten    --     5.8851                79.7628                97.7027
 Raman Activ --     0.0275                 0.6025                 0.8582

                     4                      5                      6
                     A                      A                      A
 Frequencies --  -194.8251               -60.9196               -39.7759
 Red. masses --     1.6310                 6.3703                 6.1273
 Frc consts  --     0.0365                 0.0139                 0.0057
 IR Inten    --    26.2314                 1.6984                 1.1868
 Raman Activ --     0.4978                 0.0199                 0.0647

                     7                      8                      9
                     A                      A                      A
 Frequencies --    25.0794                39.9901                78.8769
 Red. masses --     6.5724                 5.9481                 6.7903
 Frc consts  --     0.0024                 0.0056                 0.0249
 IR Inten    --     1.5218                 2.2261                 3.0090
 Raman Activ --     0.0500                 0.0415                 0.0723

                    10                     11                     12
                     A                      A                      A
 Frequencies --    94.8804               101.5790               117.6072
 Red. masses --     6.6497                 6.8884                 5.7033
 Frc consts  --     0.0353                 0.0419                 0.0465
 IR Inten    --     0.9117                 1.6596                 2.9526
 Raman Activ --     0.2418                 0.0975                 0.1011

                    13                     14                     15
                     A                      A                      A
 Frequencies --   166.9092               182.8488               203.9106
 Red. masses --     6.3420                 5.2292                 6.8406
 Frc consts  --     0.1041                 0.1030                 0.1676
 IR Inten    --     1.3878                 5.8396                 0.2810
 Raman Activ --     0.7720                 0.3064                 0.5785

                    16                     17                     18
                     A                      A                      A
 Frequencies --   219.7072               241.0339               276.8859
 Red. masses --     7.1783                 5.8968                 5.1594
 Frc consts  --     0.2042                 0.2018                 0.2330
 IR Inten    --     0.3611                 2.1191                 7.2020
 Raman Activ --     2.5985                 0.1330                 0.3504

                    19                     20                     21
                     A                      A                      A
 Frequencies --   282.0443               296.9814               303.4810
 Red. masses --     5.5016                 4.9253                 5.4043
 Frc consts  --     0.2579                 0.2559                 0.2933
 IR Inten    --     7.4423                 1.9534                 4.0259
 Raman Activ --     0.6860                 0.0918                 1.1178

                    22                     23                     24
                     A                      A                      A
 Frequencies --   312.7039               318.6500               330.3757
 Red. masses --     5.1469                 5.2885                 6.4037
 Frc consts  --     0.2965                 0.3164                 0.4118
 IR Inten    --     9.6445                 1.4139                 1.4120
 Raman Activ --     0.2191                 2.0715                 2.8162

                    25                     26                     27
                     A                      A                      A
 Frequencies --   351.2034               365.2807               373.9439
 Red. masses --     6.7657                 4.8926                 6.6557
 Frc consts  --     0.4917                 0.3846                 0.5484
 IR Inten    --    19.4665                 4.1091                 3.2668
 Raman Activ --     3.1853                 0.6885                 1.3257

                    28                     29                     30
                     A                      A                      A
 Frequencies --   400.2118               426.8166               431.7615
 Red. masses --     5.0846                 6.2979                 4.5267
 Frc consts  --     0.4798                 0.6760                 0.4972
 IR Inten    --    20.1019                 4.7509                 3.9096
 Raman Activ --     1.9268                 1.4897                 6.9855

                    31                     32                     33
                     A                      A                      A
 Frequencies --   443.2876               473.3306               491.6326
 Red. masses --     5.1499                 4.4228                 4.7061
 Frc consts  --     0.5962                 0.5838                 0.6702
 IR Inten    --     2.9973                 3.9122                 6.7616
 Raman Activ --     3.3758                 5.6039                 0.2653

                    34                     35                     36
                     A                      A                      A
 Frequencies --   512.5436               524.0185               558.3135
 Red. masses --     3.2388                 3.3939                 3.5122
 Frc consts  --     0.5013                 0.5491                 0.6450
 IR Inten    --    12.2415                17.3256                12.4793
 Raman Activ --     3.1710                 2.0212                 1.0748

                    37                     38                     39
                     A                      A                      A
 Frequencies --   578.0265               589.3588               612.5042
 Red. masses --     2.6563                 6.7794                 3.9142
 Frc consts  --     0.5229                 1.3874                 0.8652
 IR Inten    --    39.6440                 1.0291                 7.3476
 Raman Activ --     0.2254                 0.6283                 0.6444

                    40                     41                     42
                     A                      A                      A
 Frequencies --   636.4830               686.7303               700.6730
 Red. masses --     5.8368                 1.0752                 4.9655
 Frc consts  --     1.3932                 0.2987                 1.4363
 IR Inten    --    47.0802                78.2678                29.7754
 Raman Activ --     0.7883                 1.5335                 1.5771

                    43                     44                     45
                     A                      A                      A
 Frequencies --   713.1445               746.6106               750.2861
 Red. masses --     1.0996                 1.0637                 1.0686
 Frc consts  --     0.3295                 0.3493                 0.3544
 IR Inten    --   107.2445                38.0258               154.2932
 Raman Activ --     1.9180                 1.4539                 2.3040

                    46                     47                     48
                     A                      A                      A
 Frequencies --   775.5055               851.1884               866.9585
 Red. masses --     1.0610                 1.4548                 1.7410
 Frc consts  --     0.3760                 0.6210                 0.7710
 IR Inten    --   120.5743                19.0188                 5.6311
 Raman Activ --     2.3386                 0.3150                 2.2194

                    49                     50                     51
                     A                      A                      A
 Frequencies --   905.4128               927.1068               951.9202
 Red. masses --     1.1970                 5.8632                 6.1170
 Frc consts  --     0.5781                 2.9692                 3.2658
 IR Inten    --    40.7722               114.9309                70.9457
 Raman Activ --     0.4111                 3.1812                 0.9337

                    52                     53                     54
                     A                      A                      A
 Frequencies --   975.0994               985.8467               986.8579
 Red. masses --     6.2192                 5.5865                 4.6000
 Frc consts  --     3.4840                 3.1989                 2.6395
 IR Inten    --    18.3666               363.3881                43.4996
 Raman Activ --     2.1118                 0.5806                 0.5373

                    55                     56                     57
                     A                      A                      A
 Frequencies --  1004.8107              1009.4189              1019.0057
 Red. masses --     5.2204                 5.9611                 5.6334
 Frc consts  --     3.1054                 3.5787                 3.4465
 IR Inten    --   127.7793                21.2724                99.4020
 Raman Activ --     1.9625                 2.5234                 3.5259

                    58                     59                     60
                     A                      A                      A
 Frequencies --  1042.3238              1058.4769              1062.2571
 Red. masses --     5.9371                 5.2803                 4.6982
 Frc consts  --     3.8004                 3.4856                 3.1235
 IR Inten    --   430.4225                62.8542               126.6782
 Raman Activ --     1.9570                 5.3249                 5.9282

                    61                     62                     63
                     A                      A                      A
 Frequencies --  1064.7378              1075.1587              1081.9822
 Red. masses --     4.1163                 2.9816                 5.9685
 Frc consts  --     2.7495                 2.0307                 4.1168
 IR Inten    --    16.1793                15.2314                30.6923
 Raman Activ --     7.0670                16.0286                 1.8963

                    64                     65                     66
                     A                      A                      A
 Frequencies --  1097.6563              1104.4270              1109.4937
 Red. masses --     2.8262                 2.6195                 2.7278
 Frc consts  --     2.0062                 1.8825                 1.9784
 IR Inten    --    27.4069                19.7887                95.3967
 Raman Activ --    17.1427                 3.0453                 4.8025

                    67                     68                     69
                     A                      A                      A
 Frequencies --  1117.5124              1125.6391              1134.0279
 Red. masses --     2.4741                 2.2464                 2.2106
 Frc consts  --     1.8204                 1.6770                 1.6750
 IR Inten    --    40.8812                 5.1528                48.9393
 Raman Activ --     0.8865                 5.5802                 3.9307

                    70                     71                     72
                     A                      A                      A
 Frequencies --  1141.5403              1143.2087              1150.8589
 Red. masses --     2.0213                 2.6655                 2.2316
 Frc consts  --     1.5519                 2.0525                 1.7415
 IR Inten    --    59.6552                 9.0740                13.7461
 Raman Activ --     0.9928                 6.2197                 2.2829

                    73                     74                     75
                     A                      A                      A
 Frequencies --  1156.4457              1167.3558              1184.8916
 Red. masses --     1.6234                 1.9927                 1.2402
 Frc consts  --     1.2791                 1.5999                 1.0259
 IR Inten    --    11.2357                 1.2729                 3.3961
 Raman Activ --     4.5409                 3.4171                 2.1862

                    76                     77                     78
                     A                      A                      A
 Frequencies --  1193.9354              1204.8217              1225.4668
 Red. masses --     1.8361                 1.3779                 1.4110
 Frc consts  --     1.5421                 1.1784                 1.2485
 IR Inten    --     6.5416                24.5019                 1.7817
 Raman Activ --     2.1269                 4.1788                 1.4907

                    79                     80                     81
                     A                      A                      A
 Frequencies --  1229.9631              1238.5920              1249.4200
 Red. masses --     1.2878                 1.2143                 1.3282
 Frc consts  --     1.1479                 1.0976                 1.2216
 IR Inten    --     1.7907                20.9938                23.5800
 Raman Activ --     1.6366                 0.4741                 0.7978

                    82                     83                     84
                     A                      A                      A
 Frequencies --  1260.5108              1273.4233              1277.2397
 Red. masses --     1.2629                 1.2648                 1.2370
 Frc consts  --     1.1823                 1.2084                 1.1890
 IR Inten    --    14.1363                14.3027                 2.1014
 Raman Activ --     3.6099                 1.3366                 4.4772

                    85                     86                     87
                     A                      A                      A
 Frequencies --  1280.9301              1288.4782              1293.6510
 Red. masses --     1.2967                 1.2540                 1.2199
 Frc consts  --     1.2535                 1.2266                 1.2028
 IR Inten    --    41.5245                 7.6139                10.5140
 Raman Activ --     2.8370                 3.5009                 5.4229

                    88                     89                     90
                     A                      A                      A
 Frequencies --  1303.4294              1316.6985              1325.8972
 Red. masses --     1.3290                 1.3396                 1.2282
 Frc consts  --     1.3303                 1.3684                 1.2722
 IR Inten    --    39.2233                31.5039                 8.7444
 Raman Activ --     2.9680                 2.1672                10.8274

                    91                     92                     93
                     A                      A                      A
 Frequencies --  1333.1617              1343.2268              1347.7386
 Red. masses --     1.2939                 1.2431                 1.3288
 Frc consts  --     1.3549                 1.3215                 1.4221
 IR Inten    --    26.9363                31.5225                23.4474
 Raman Activ --     2.7136                 5.6616                 4.3062

                    94                     95                     96
                     A                      A                      A
 Frequencies --  1348.9776              1361.3096              1366.5299
 Red. masses --     1.3297                 1.2657                 1.4370
 Frc consts  --     1.4256                 1.3819                 1.5810
 IR Inten    --    37.0691                18.4764                 1.9780
 Raman Activ --     1.1716                 6.9632                 4.8920

                    97                     98                     99
                     A                      A                      A
 Frequencies --  1376.5490              1380.0475              1390.1259
 Red. masses --     1.4187                 1.4230                 1.4975
 Frc consts  --     1.5838                 1.5967                 1.7050
 IR Inten    --     1.4442                 0.2407                22.7316
 Raman Activ --     4.3601                 9.0638                 2.4195

                   100                    101                    102
                     A                      A                      A
 Frequencies --  1391.6220              1413.0024              1435.3798
 Red. masses --     1.4939                 1.5433                 1.3708
 Frc consts  --     1.7046                 1.8155                 1.6640
 IR Inten    --     6.4950                37.3426                17.6870
 Raman Activ --     3.9284                 1.3305                 1.3285

                   103                    104                    105
                     A                      A                      A
 Frequencies --  1463.7048              1471.3248              1472.6165
 Red. masses --     1.3173                 1.0973                 1.0865
 Frc consts  --     1.6628                 1.3996                 1.3883
 IR Inten    --    44.2553                 7.6184                 4.5743
 Raman Activ --     3.6113                 5.0682                 3.4583

                   106                    107                    108
                     A                      A                      A
 Frequencies --  1473.2383              1508.3955              3190.2761
 Red. masses --     1.3670                 1.2169                 1.0703
 Frc consts  --     1.7481                 1.6313                 6.4182
 IR Inten    --    11.2781                28.9706              1103.3036
 Raman Activ --     0.8912                 0.9215               186.0659

                   109                    110                    111
                     A                      A                      A
 Frequencies --  3247.9343              3254.0682              3259.4602
 Red. masses --     1.0784                 1.0574                 1.0613
 Frc consts  --     6.7025                 6.5969                 6.6432
 IR Inten    --   105.1088                21.7292                16.7275
 Raman Activ --    88.8585                94.9089               139.8463

                   112                    113                    114
                     A                      A                      A
 Frequencies --  3260.9375              3268.9654              3271.0347
 Red. masses --     1.0780                 1.0809                 1.0819
 Frc consts  --     6.7540                 6.8055                 6.8201
 IR Inten    --    43.0869                 2.5234                 2.4356
 Raman Activ --    25.2704               137.7779                 4.8697

                   115                    116                    117
                     A                      A                      A
 Frequencies --  3275.5340              3279.7090              3282.9194
 Red. masses --     1.0786                 1.0826                 1.0780
 Frc consts  --     6.8182                 6.8608                 6.8450
 IR Inten    --   170.0115                45.5891               315.2303
 Raman Activ --    41.8458                99.6834                89.4288

                   118                    119                    120
                     A                      A                      A
 Frequencies --  3286.6597              3288.2657              3296.7410
 Red. masses --     1.0849                 1.0848                 1.0876
 Frc consts  --     6.9050                 6.9112                 6.9644
 IR Inten    --    40.1362                90.2529                21.8510
 Raman Activ --    75.5124                55.9651                41.6860

                   121                    122                    123
                     A                      A                      A
 Frequencies --  3298.1913              3313.2840              3317.5423
 Red. masses --     1.0866                 1.1034                 1.1089
 Frc consts  --     6.9642                 7.1367                 7.1910
 IR Inten    --   146.5699                52.4827                43.9898
 Raman Activ --     9.9291                29.8774                43.8794

                   124                    125                    126
                     A                      A                      A
 Frequencies --  3347.1863              3347.8299              3357.8116
 Red. masses --     1.0658                 1.0663                 1.0683
 Frc consts  --     7.0353                 7.0417                 7.0967
 IR Inten    --    28.2130                38.2839                81.6008
 Raman Activ --    91.5295               216.1971               139.0083

                   127                    128                    129
                     A                      A                      A
 Frequencies --  3360.3972              3875.5141              3877.8939
 Red. masses --     1.0674                 1.0676                 1.0674
 Frc consts  --     7.1015                 9.4472                 9.4574
 IR Inten    --    47.9848                76.0629                66.9387
 Raman Activ --   184.6882                89.4112               134.3177

 - Thermochemistry -
 -------------------
 Temperature   298.150 Kelvin.  Pressure   1.00000 Atm.
 Atom     1 has atomic number  8 and mass  15.99491

 Molecular mass:   342.11621 amu.
 Principal axes and moments of inertia in atomic units:
                           1         2         3
     Eigenvalues --  4378.71227********************
           X            0.99997  -0.00742   0.00046
           Y            0.00742   0.99997  -0.00144
           Z           -0.00045   0.00144   1.00000
 This molecule is an asymmetric top.
 Rotational symmetry number  1.
 Warning -- assumption of classical behavior for rotation
           may cause significant error
 Rotational temperatures (Kelvin)      0.01978     0.00707     0.00537
 Rotational constants (GHZ):           0.41216     0.14742     0.11187
    6 imaginary frequencies ignored.
 Zero-point vibrational energy     972769.7 (Joules/Mol)
                                  232.49754 (Kcal/Mol)
 Warning -- explicit consideration of  33 degrees of freedom as
           vibrations may cause significant error
 Vibrational temperatures:     36.08    57.54   113.49   136.51   146.15
          (Kelvin)            169.21   240.14   263.08   293.38   316.11
                              346.79   398.38   405.80   427.29   436.64
                              449.91   458.47   475.34   505.30   525.56
                              538.02   575.81   614.09   621.21   637.79
                              681.02   707.35   737.43   753.94   803.29
                              831.65   847.95   881.26   915.76   988.05
                             1008.11  1026.05  1074.20  1079.49  1115.78
                             1224.67  1247.36  1302.69  1333.90  1369.60
                             1402.95  1418.41  1419.87  1445.70  1452.33
                             1466.12  1499.67  1522.91  1528.35  1531.92
                             1546.91  1556.73  1579.28  1589.02  1596.31
                             1607.85  1619.54  1631.61  1642.42  1644.82
                             1655.83  1663.87  1679.56  1704.79  1717.80
                             1733.47  1763.17  1769.64  1782.06  1797.63
                             1813.59  1832.17  1837.66  1842.97  1853.83
                             1861.27  1875.34  1894.43  1907.67  1918.12
                             1932.60  1939.09  1940.88  1958.62  1966.13
                             1980.54  1985.58  2000.08  2002.23  2032.99
                             2065.19  2105.94  2116.91  2118.76  2119.66
                             2170.24  4590.09  4673.05  4681.87  4689.63
                             4691.76  4703.31  4706.28  4712.76  4718.76
                             4723.38  4728.76  4731.07  4743.27  4745.36
                             4767.07  4773.20  4815.85  4816.77  4831.14
                             4834.86  5575.99  5579.42

 Zero-point correction=                           0.370508 (Hartree/Particle)
 Thermal correction to Energy=                    0.389506
 Thermal correction to Enthalpy=                  0.390450
 Thermal correction to Gibbs Free Energy=         0.323459
 Sum of electronic and zero-point Energies=          -1297.648395
 Sum of electronic and thermal Energies=             -1297.629397
 Sum of electronic and thermal Enthalpies=           -1297.628453
 Sum of electronic and thermal Free Energies=        -1297.695444

                     E (Thermal)             CV                S
                      KCal/Mol        Cal/Mol-Kelvin    Cal/Mol-Kelvin
 Total                  244.419             77.734            140.995
 Electronic               0.000              0.000              0.000
 Translational            0.889              2.981             43.384
 Rotational               0.889              2.981             35.113
 Vibrational            242.641             71.772             62.498
 Vibration     1          0.593              1.985              6.185
 Vibration     2          0.594              1.981              5.260
 Vibration     3          0.600              1.963              3.919
 Vibration     4          0.603              1.953              3.557
 Vibration     5          0.604              1.948              3.424
 Vibration     6          0.608              1.935              3.139
 Vibration     7          0.624              1.883              2.470
 Vibration     8          0.630              1.863              2.299
 Vibration     9          0.640              1.834              2.098
 Vibration    10          0.647              1.811              1.962
 Vibration    11          0.658              1.778              1.795
 Vibration    12          0.678              1.716              1.553
 Vibration    13          0.681              1.707              1.521
 Vibration    14          0.691              1.679              1.434
 Vibration    15          0.695              1.667              1.398
 Vibration    16          0.701              1.649              1.348
 Vibration    17          0.705              1.638              1.317
 Vibration    18          0.713              1.615              1.258
 Vibration    19          0.728              1.573              1.161
 Vibration    20          0.739              1.544              1.100
 Vibration    21          0.745              1.526              1.064
 Vibration    22          0.766              1.470              0.962
 Vibration    23          0.788              1.412              0.869
 Vibration    24          0.793              1.401              0.853
 Vibration    25          0.803              1.376              0.816
 Vibration    26          0.830              1.309              0.728
 Vibration    27          0.847              1.269              0.679
 Vibration    28          0.868              1.222              0.627
 Vibration    29          0.879              1.197              0.601
 Vibration    30          0.914              1.122              0.527
 Vibration    31          0.935              1.079              0.489
 Vibration    32          0.947              1.054              0.468
 Vibration    33          0.972              1.005              0.429

 Normal termination of Gaussian 09 at Fri Feb  5 15:09:57 2016.
