 Gaussian 09, Revision B.01,
 Gaussian 09:  EM64L-G09RevB.01 12-Aug-2010

 -------------------------------------------------
 # freq=raman b3lyp/6-31+g(2d,p) geom=connectivity
 -------------------------------------------------

 -----------------
 350 5685/5685.com
 -----------------
 Symbolic Z-matrix:
 Charge =  0 Multiplicity = 1

                         Standard orientation:
 ---------------------------------------------------------------------
 Center     Atomic      Atomic             Coordinates (Angstroms)
 Number     Number       Type             X           Y           Z
 ---------------------------------------------------------------------
      1          8           0       -5.103239   -0.502906    0.319145
      2          6           0       -3.805989   -0.137600   -0.172442
      3          6           0       -3.236202    1.162745    0.370104
      4          8           0       -4.062593    2.270009   -0.016119
      5          1           0       -5.040935    2.185371    0.176336
      6          6           0       -1.854124    1.614298   -0.071387
      7          8           0       -1.370961    2.821172    0.537745
      8          1           0       -0.561484    2.999954   -0.022625
      9          6           0       -2.980251   -2.549263   -0.139472
     10          8           0       -4.221646   -3.208815    0.148977
     11          1           0       -3.936325   -4.167308    0.141820
     12          6           0       -2.689776   -1.097487    0.205997
     13          8           0       -1.434257   -0.752439   -0.397992
     14          6           0       -0.883232    0.462589    0.131176
     15          8           0        0.287969    0.544732   -0.694120
     16          6           0        1.473900    0.234866    0.051248
     17          6           0        2.006584   -1.123877   -0.373495
     18          8           0        1.010645   -2.131526   -0.149273
     19          1           0        0.262953   -1.748702   -0.691503
     20          6           0        3.327481   -1.527602    0.260408
     21          8           0        3.760378   -2.831667   -0.155130
     22          1           0        4.663613   -2.910286    0.265630
     23          6           0        2.383644    2.681406   -0.083741
     24          8           0        1.150899    3.357391   -0.373452
     25          1           0        1.313302    4.342074   -0.323549
     26          6           0        2.622379    1.188618   -0.237437
     27          8           0        3.903119    0.826805    0.298805
     28          6           0        4.373786   -0.476998   -0.072548
     29          8           0        5.545589   -0.670194    0.732028
     30          1           0        6.283787   -0.914130    0.168860
     31          1           0        3.129270    3.161115   -0.682758
     32          1           0        2.612134    2.911759    0.935881
     33          1           0        2.759755    1.074909   -1.292472
     34          1           0        1.256986    0.230635    1.099022
     35          1           0        2.171308   -1.076304   -1.429669
     36          1           0        3.196480   -1.543266    1.322243
     37          1           0        4.621788   -0.506119   -1.113003
     38          1           0       -5.657213   -0.779527   -0.414471
     39          1           0       -2.216177   -3.128552    0.335412
     40          1           0       -2.830556   -2.641461   -1.194930
     41          1           0       -2.563793   -1.038501    1.266916
     42          1           0       -3.853409   -0.071408   -1.239339
     43          1           0       -3.238169    1.101608    1.438354
     44          1           0       -1.907874    1.798171   -1.124098
     45          1           0       -0.621867    0.349297    1.162560
 ---------------------------------------------------------------------

 SCF Done:  E(RB3LYP) =  -1297.96155720     A.U. after   13 cycles

 The electronic state is 1-A.
 Alpha  occ. eigenvalues --  -19.18747 -19.18676 -19.18499 -19.18377 -19.18006
 Alpha  occ. eigenvalues --  -19.16665 -19.16605 -19.16071 -19.14257 -19.14170
 Alpha  occ. eigenvalues --  -19.14065 -10.31127 -10.30099 -10.26304 -10.25612
 Alpha  occ. eigenvalues --  -10.25399 -10.24874 -10.24861 -10.24788 -10.24239
 Alpha  occ. eigenvalues --  -10.24224 -10.24215 -10.23367  -1.10317  -1.09449
 Alpha  occ. eigenvalues --   -1.05389  -1.04797  -1.03965  -1.03774  -1.03091
 Alpha  occ. eigenvalues --   -1.02624  -1.02007  -1.01120  -1.00026  -0.82272
 Alpha  occ. eigenvalues --   -0.80288  -0.79523  -0.78078  -0.71911  -0.69977
 Alpha  occ. eigenvalues --   -0.67327  -0.65141  -0.62994  -0.61783  -0.61552
 Alpha  occ. eigenvalues --   -0.60108  -0.56640  -0.55465  -0.54994  -0.54321
 Alpha  occ. eigenvalues --   -0.53612  -0.53260  -0.52874  -0.52022  -0.51513
 Alpha  occ. eigenvalues --   -0.50660  -0.50070  -0.49024  -0.47581  -0.46670
 Alpha  occ. eigenvalues --   -0.46412  -0.44987  -0.44171  -0.43440  -0.43174
 Alpha  occ. eigenvalues --   -0.42481  -0.42074  -0.41503  -0.40404  -0.39399
 Alpha  occ. eigenvalues --   -0.38584  -0.38244  -0.37762  -0.36518  -0.35867
 Alpha  occ. eigenvalues --   -0.35313  -0.35115  -0.34675  -0.33932  -0.33563
 Alpha  occ. eigenvalues --   -0.33160  -0.31534  -0.30747  -0.30362  -0.29719
 Alpha  occ. eigenvalues --   -0.29178  -0.28433  -0.28212  -0.27509  -0.26555
 Alpha  occ. eigenvalues --   -0.25796
 Alpha virt. eigenvalues --   -0.02288  -0.02097  -0.01578  -0.00008   0.00310
 Alpha virt. eigenvalues --    0.01049   0.02001   0.02294   0.03125   0.03466
 Alpha virt. eigenvalues --    0.03573   0.04122   0.04939   0.05437   0.05863

 Mulliken atomic charges:
              1
     1  O   -0.528136
     2  C   -0.093271
     3  C    0.432127
     4  O   -0.576053
     5  H    0.341677
     6  C   -0.444846
     7  O   -0.532484
     8  H    0.395146
     9  C   -0.360391
    10  O   -0.508990
    11  H    0.336600
    12  C    0.324497
    13  O   -0.246369
    14  C    0.327193
    15  O   -0.193871
    16  C    0.423045
    17  C    0.068998
    18  O   -0.514750
    19  H    0.359865
    20  C    0.069127
    21  O   -0.530463
    22  H    0.333147
    23  C   -0.365763
    24  O   -0.563400
    25  H    0.364313
    26  C   -0.108849
    27  O   -0.268341
    28  C    0.143221
    29  O   -0.536767
    30  H    0.337655
    31  H    0.146348
    32  H    0.153652
    33  H    0.106731
    34  H    0.103867
    35  H    0.116452
    36  H    0.129708
    37  H    0.131686
    38  H    0.343315
    39  H    0.146248
    40  H    0.140961
    41  H    0.105429
    42  H    0.116120
    43  H    0.119756
    44  H    0.133102
    45  H    0.122760
 Sum of Mulliken atomic charges =   0.00000

 Dipole moment (field-independent basis, Debye):
    X=              3.0787    Y=              0.3410    Z=             -2.1840  Tot=              3.7901
 Quadrupole moment (field-independent basis, Debye-Ang):
   XX=           -119.8339   YY=           -135.6362   ZZ=           -138.9571
   XY=             10.5741   XZ=             -0.3944   YZ=             -2.5711

  Exact polarizability: 233.553  -1.355 198.018   0.926   0.415 142.739
 Approx polarizability: 274.883  -0.756 257.280   1.359   0.661 239.584

 ******    6 imaginary frequencies (negative Signs) ******

                     1                      2                      3
                     A                      A                      A
 Frequencies --  -339.4800              -328.8563              -284.4499
 Red. masses --     1.7435                 1.5843                 1.1703
 Frc consts  --     0.1184                 0.1010                 0.0558
 IR Inten    --     2.2836                19.1702                89.5612
 Raman Activ --     0.0790                 0.2207                 0.7777

                     4                      5                      6
                     A                      A                      A
 Frequencies --  -196.7657               -86.4712               -55.2705
 Red. masses --     1.2443                 6.8347                 6.4082
 Frc consts  --     0.0284                 0.0301                 0.0115
 IR Inten    --   109.0193                 0.8191                 0.3776
 Raman Activ --     0.6991                 0.0472                 0.0415

                     7                      8                      9
                     A                      A                      A
 Frequencies --    27.8219                53.0383                56.9152
 Red. masses --     6.7152                 6.3526                 6.2274
 Frc consts  --     0.0031                 0.0105                 0.0119
 IR Inten    --     0.0145                 1.1334                 1.4868
 Raman Activ --     0.0484                 0.0593                 0.0315

                    10                     11                     12
                     A                      A                      A
 Frequencies --    77.6808                88.9279               118.2308
 Red. masses --     6.5739                 6.3198                 5.5531
 Frc consts  --     0.0234                 0.0294                 0.0457
 IR Inten    --     0.1232                 0.8936                 1.6600
 Raman Activ --     0.1010                 0.1954                 0.0793

                    13                     14                     15
                     A                      A                      A
 Frequencies --   152.2976               168.1627               180.4278
 Red. masses --     6.2069                 5.4772                 7.6160
 Frc consts  --     0.0848                 0.0913                 0.1461
 IR Inten    --     3.2999                 3.2027                 0.7095
 Raman Activ --     0.4924                 0.3194                 0.4834

                    16                     17                     18
                     A                      A                      A
 Frequencies --   204.1686               224.5105               267.0281
 Red. masses --     6.7976                 6.0204                 5.0586
 Frc consts  --     0.1669                 0.1788                 0.2125
 IR Inten    --     0.3442                 1.3272                 5.0952
 Raman Activ --     2.1206                 0.4557                 0.2127

                    19                     20                     21
                     A                      A                      A
 Frequencies --   277.7749               279.9638               292.7459
 Red. masses --     4.3217                 4.8498                 5.0122
 Frc consts  --     0.1965                 0.2240                 0.2531
 IR Inten    --    12.1446                 1.1585                 0.6733
 Raman Activ --     0.3898                 0.1185                 0.6202

                    22                     23                     24
                     A                      A                      A
 Frequencies --   303.7269               306.2945               316.2690
 Red. masses --     5.8142                 4.9321                 6.6940
 Frc consts  --     0.3160                 0.2726                 0.3945
 IR Inten    --     1.0347                 4.2538                 7.2193
 Raman Activ --     3.4618                 0.1192                 4.3726

                    25                     26                     27
                     A                      A                      A
 Frequencies --   337.9784               352.3509               375.8302
 Red. masses --     6.2795                 4.2115                 8.0605
 Frc consts  --     0.4226                 0.3081                 0.6708
 IR Inten    --     4.0503                 3.1678                 0.8746
 Raman Activ --     3.0660                 0.1760                 2.5848

                    28                     29                     30
                     A                      A                      A
 Frequencies --   398.4007               416.4709               422.2270
 Red. masses --     6.4949                 6.5649                 3.4805
 Frc consts  --     0.6074                 0.6709                 0.3656
 IR Inten    --     9.8016                 0.3513                21.1201
 Raman Activ --     4.9960                 1.9163                 2.3692

                    31                     32                     33
                     A                      A                      A
 Frequencies --   441.0272               475.7362               492.0313
 Red. masses --     5.1544                 4.0908                 4.6985
 Frc consts  --     0.5907                 0.5455                 0.6702
 IR Inten    --     2.7878                15.1300                 8.5202
 Raman Activ --     1.7601                 0.0928                 3.1825

                    34                     35                     36
                     A                      A                      A
 Frequencies --   498.0491               529.3907               561.1305
 Red. masses --     4.2495                 3.0622                 4.5500
 Frc consts  --     0.6211                 0.5056                 0.8441
 IR Inten    --     4.1593                10.6069                11.4619
 Raman Activ --     5.3150                 2.5284                 1.9371

                    37                     38                     39
                     A                      A                      A
 Frequencies --   587.5307               592.0650               609.8373
 Red. masses --     6.4317                 2.8229                 6.0991
 Frc consts  --     1.3081                 0.5830                 1.3364
 IR Inten    --     2.0703                54.5998                36.7992
 Raman Activ --     0.7323                 0.3111                 1.6382

                    40                     41                     42
                     A                      A                      A
 Frequencies --   635.6669               684.4257               687.9264
 Red. masses --     3.6683                 1.1154                 5.0978
 Frc consts  --     0.8733                 0.3079                 1.4214
 IR Inten    --    15.7242                92.8205                24.6839
 Raman Activ --     0.3174                 2.0111                 1.8573

                    43                     44                     45
                     A                      A                      A
 Frequencies --   706.5510               729.2282               761.5298
 Red. masses --     1.0592                 1.0885                 1.0886
 Frc consts  --     0.3115                 0.3410                 0.3720
 IR Inten    --    91.8542               107.6726                93.0090
 Raman Activ --     2.7287                 1.2645                 1.4848

                    46                     47                     48
                     A                      A                      A
 Frequencies --   796.5458               809.1467               850.5654
 Red. masses --     1.1217                 1.1012                 1.7928
 Frc consts  --     0.4193                 0.4248                 0.7642
 IR Inten    --   174.6765                89.1086                 3.1680
 Raman Activ --     4.2391                 2.7765                 1.5707

                    49                     50                     51
                     A                      A                      A
 Frequencies --   874.9506               928.9522               947.8096
 Red. masses --     1.8409                 5.5097                 6.1963
 Frc consts  --     0.8303                 2.8013                 3.2796
 IR Inten    --     4.6818               142.5680                19.3531
 Raman Activ --     1.0850                 3.1821                 0.1026

                    52                     53                     54
                     A                      A                      A
 Frequencies --   973.8188               977.3291               985.7765
 Red. masses --     5.6212                 5.6115                 5.4452
 Frc consts  --     3.1407                 3.1580                 3.1176
 IR Inten    --   332.6472                28.5514                20.4819
 Raman Activ --     1.7028                 2.1565                 1.7573

                    55                     56                     57
                     A                      A                      A
 Frequencies --   997.0812              1007.5051              1017.1348
 Red. masses --     6.8994                 5.7619                 5.3892
 Frc consts  --     4.0413                 3.4459                 3.2850
 IR Inten    --   343.3216                44.2305               111.3919
 Raman Activ --     1.3312                 1.2574                 3.6601

                    58                     59                     60
                     A                      A                      A
 Frequencies --  1031.4475              1053.8619              1066.8294
 Red. masses --     5.6852                 5.6012                 4.6275
 Frc consts  --     3.5636                 3.6652                 3.1030
 IR Inten    --   294.0655                91.4597                94.1410
 Raman Activ --     3.6927                 2.1457                 1.2115

                    61                     62                     63
                     A                      A                      A
 Frequencies --  1071.6275              1075.1300              1084.1281
 Red. masses --     5.2017                 3.3876                 3.1763
 Frc consts  --     3.5195                 2.3071                 2.1996
 IR Inten    --    38.4195                14.2589                31.9249
 Raman Activ --     1.4878                 5.7976                12.1638

                    64                     65                     66
                     A                      A                      A
 Frequencies --  1102.6175              1106.3307              1109.2500
 Red. masses --     3.0870                 3.5753                 2.8472
 Frc consts  --     2.2112                 2.5783                 2.0641
 IR Inten    --    49.7842                13.0125                45.6178
 Raman Activ --     7.2320                16.7955                 4.2907

                    67                     68                     69
                     A                      A                      A
 Frequencies --  1122.8839              1126.2415              1131.5093
 Red. masses --     2.6094                 3.1846                 2.4722
 Frc consts  --     1.9384                 2.3799                 1.8649
 IR Inten    --    47.5103                33.7577                56.6648
 Raman Activ --     9.9258                 1.7001                 7.8796

                    70                     71                     72
                     A                      A                      A
 Frequencies --  1143.3190              1152.9684              1164.3450
 Red. masses --     2.7229                 1.6688                 1.8215
 Frc consts  --     2.0971                 1.3071                 1.4550
 IR Inten    --    24.6328                 1.7673                14.9963
 Raman Activ --     4.6828                 4.5760                 1.8013

                    73                     74                     75
                     A                      A                      A
 Frequencies --  1175.4861              1199.5780              1207.0765
 Red. masses --     2.5283                 1.7949                 1.6543
 Frc consts  --     2.0583                 1.5217                 1.4201
 IR Inten    --     8.4983                 2.3323                12.3494
 Raman Activ --     2.7870                 0.7315                 2.7641

                    76                     77                     78
                     A                      A                      A
 Frequencies --  1209.8359              1230.0796              1238.2079
 Red. masses --     1.3339                 1.5625                 1.2804
 Frc consts  --     1.1504                 1.3930                 1.1566
 IR Inten    --     6.0323                10.7193                14.7129
 Raman Activ --     1.0983                 1.8281                 1.6373

                    79                     80                     81
                     A                      A                      A
 Frequencies --  1245.9541              1249.4544              1264.7588
 Red. masses --     1.2633                 1.2705                 1.3935
 Frc consts  --     1.1555                 1.1686                 1.3133
 IR Inten    --    19.3679                 9.1449                13.8371
 Raman Activ --     0.7003                 1.8864                 1.7950

                    82                     83                     84
                     A                      A                      A
 Frequencies --  1273.9224              1295.9786              1305.3742
 Red. masses --     1.2899                 1.3612                 1.3177
 Frc consts  --     1.2333                 1.3470                 1.3230
 IR Inten    --    30.6748                21.5027                 6.0269
 Raman Activ --     0.3487                 1.6644                 1.6740

                    85                     86                     87
                     A                      A                      A
 Frequencies --  1311.6122              1315.2918              1325.0923
 Red. masses --     1.2669                 1.2448                 1.3286
 Frc consts  --     1.2841                 1.2688                 1.3744
 IR Inten    --     8.7455                10.8947                16.7624
 Raman Activ --     1.6445                 1.2858                10.4330

                    88                     89                     90
                     A                      A                      A
 Frequencies --  1332.3286              1338.2474              1342.2004
 Red. masses --     1.3627                 1.2029                 1.2357
 Frc consts  --     1.4252                 1.2693                 1.3116
 IR Inten    --    33.0560                16.3191                 8.0320
 Raman Activ --     2.8000                12.6442                 2.3267

                    91                     92                     93
                     A                      A                      A
 Frequencies --  1344.4986              1354.4228              1369.1617
 Red. masses --     1.1579                 1.2419                 1.3987
 Frc consts  --     1.2332                 1.3422                 1.5448
 IR Inten    --    34.9178                21.3701                 5.7536
 Raman Activ --     8.9969                 3.1863                 2.9467

                    94                     95                     96
                     A                      A                      A
 Frequencies --  1370.3966              1378.0691              1380.4932
 Red. masses --     1.1439                 1.2172                 1.3427
 Frc consts  --     1.2657                 1.3619                 1.5076
 IR Inten    --    16.4357                30.2278                 6.7848
 Raman Activ --     1.7086                 2.4085                 1.5404

                    97                     98                     99
                     A                      A                      A
 Frequencies --  1392.0672              1401.9388              1415.1987
 Red. masses --     1.4842                 1.3355                 1.4244
 Frc consts  --     1.6946                 1.5465                 1.6808
 IR Inten    --    20.5476                 7.0379                10.8984
 Raman Activ --     7.9210                 7.9041                 2.3040

                   100                    101                    102
                     A                      A                      A
 Frequencies --  1427.8413              1465.4921              1471.7402
 Red. masses --     1.3124                 1.3538                 1.0794
 Frc consts  --     1.5765                 1.7131                 1.3775
 IR Inten    --     3.5295                37.9776                 2.3322
 Raman Activ --     6.8512                 1.3166                 4.3204

                   103                    104                    105
                     A                      A                      A
 Frequencies --  1478.8262              1485.8008              1507.4649
 Red. masses --     1.1277                 1.2855                 1.3197
 Frc consts  --     1.4530                 1.6720                 1.7669
 IR Inten    --    14.7508                11.4368                32.8349
 Raman Activ --     5.2586                 0.8408                 0.9880

                   106                    107                    108
                     A                      A                      A
 Frequencies --  1530.3483              1544.8009              3237.9808
 Red. masses --     1.2824                 1.2160                 1.0812
 Frc consts  --     1.7695                 1.7097                 6.6789
 IR Inten    --    42.9161                43.0536                11.8791
 Raman Activ --     1.6374                 0.5360                33.0497

                   109                    110                    111
                     A                      A                      A
 Frequencies --  3251.2162              3255.1666              3261.2209
 Red. masses --     1.0581                 1.0587                 1.0831
 Frc consts  --     6.5895                 6.6093                 6.7871
 IR Inten    --    32.9247               105.7002                 7.5247
 Raman Activ --    80.2823                73.4446                 9.4210

                   112                    113                    114
                     A                      A                      A
 Frequencies --  3265.5825              3272.0513              3279.1546
 Red. masses --     1.0813                 1.0808                 1.0841
 Frc consts  --     6.7941                 6.8175                 6.8680
 IR Inten    --    10.3733                13.9635                 7.3481
 Raman Activ --    94.2607               206.0957                96.4706

                   115                    116                    117
                     A                      A                      A
 Frequencies --  3280.8363              3285.9110              3287.5364
 Red. masses --     1.0833                 1.0866                 1.0685
 Frc consts  --     6.8704                 6.9123                 6.8039
 IR Inten    --    24.1535                16.1296               501.0974
 Raman Activ --    29.5481                33.5728               154.9516

                   118                    119                    120
                     A                      A                      A
 Frequencies --  3291.8590              3296.6431              3300.3447
 Red. masses --     1.0874                 1.0890                 1.0947
 Frc consts  --     6.9427                 6.9732                 7.0256
 IR Inten    --    25.9960                 9.5877                 8.5385
 Raman Activ --    44.8346                12.9724                38.9080

                   121                    122                    123
                     A                      A                      A
 Frequencies --  3303.4285              3305.4135              3344.3008
 Red. masses --     1.1000                 1.0953                 1.0651
 Frc consts  --     7.0727                 7.0509                 7.0188
 IR Inten    --    20.9931               180.9551               284.3762
 Raman Activ --    30.5490                29.6254               116.4413

                   124                    125                    126
                     A                      A                      A
 Frequencies --  3359.5537              3367.7918              3372.4149
 Red. masses --     1.0670                 1.0668                 1.0650
 Frc consts  --     7.0954                 7.1288                 7.1363
 IR Inten    --    34.5503                37.8599                33.1427
 Raman Activ --   165.2224               127.2377               111.2003

                   127                    128                    129
                     A                      A                      A
 Frequencies --  3381.1343              3891.8422              3892.0083
 Red. masses --     1.0668                 1.0674                 1.0676
 Frc consts  --     7.1855                 9.5258                 9.5281
 IR Inten    --    74.3847               117.7431                51.3306
 Raman Activ --   142.2332                68.3985               132.9040

 - Thermochemistry -
 -------------------
 Temperature   298.150 Kelvin.  Pressure   1.00000 Atm.
 Atom     1 has atomic number  8 and mass  15.99491

 Molecular mass:   342.11621 amu.
 Principal axes and moments of inertia in atomic units:
                           1         2         3
     Eigenvalues --  4462.30100********************
           X            0.99998   0.00685  -0.00070
           Y           -0.00685   0.99998  -0.00065
           Z            0.00070   0.00065   1.00000
 This molecule is an asymmetric top.
 Rotational symmetry number  1.
 Warning -- assumption of classical behavior for rotation
           may cause significant error
 Rotational temperatures (Kelvin)      0.01941     0.00700     0.00527
 Rotational constants (GHZ):           0.40444     0.14584     0.10979
    6 imaginary frequencies ignored.
 Zero-point vibrational energy     977127.2 (Joules/Mol)
                                  233.53900 (Kcal/Mol)
 Warning -- explicit consideration of  33 degrees of freedom as
           vibrations may cause significant error
 Vibrational temperatures:     40.03    76.31    81.89   111.77   127.95
          (Kelvin)            170.11   219.12   241.95   259.59   293.75
                              323.02   384.19   399.66   402.80   421.20
                              436.99   440.69   455.04   486.27   506.95
                              540.74   573.21   599.21   607.49   634.54
                              684.48   707.92   716.58   761.67   807.34
                              845.32   851.85   877.42   914.58   984.73
                              989.77  1016.57  1049.20  1095.67  1146.05
                             1164.18  1223.77  1258.86  1336.55  1363.68
                             1401.11  1406.16  1418.31  1434.58  1449.57
                             1463.43  1484.02  1516.27  1534.93  1541.83
                             1546.87  1559.82  1586.42  1591.76  1595.96
                             1615.58  1620.41  1627.99  1644.98  1658.86
                             1675.23  1691.26  1725.92  1736.71  1740.68
                             1769.81  1781.50  1792.65  1797.68  1819.70
                             1832.89  1864.62  1878.14  1887.12  1892.41
                             1906.51  1916.92  1925.44  1931.12  1934.43
                             1948.71  1969.92  1971.69  1982.73  1986.22
                             2002.87  2017.07  2036.15  2054.34  2108.51
                             2117.50  2127.70  2137.73  2168.90  2201.83
                             2222.62  4658.73  4677.77  4683.45  4692.16
                             4698.44  4707.75  4717.97  4720.39  4727.69
                             4730.03  4736.25  4743.13  4748.45  4752.89
                             4755.75  4811.70  4833.64  4845.50  4852.15
                             4864.69  5599.49  5599.72

 Zero-point correction=                           0.372168 (Hartree/Particle)
 Thermal correction to Energy=                    0.391506
 Thermal correction to Enthalpy=                  0.392450
 Thermal correction to Gibbs Free Energy=         0.324510
 Sum of electronic and zero-point Energies=          -1297.589389
 Sum of electronic and thermal Energies=             -1297.570052
 Sum of electronic and thermal Enthalpies=           -1297.569108
 Sum of electronic and thermal Free Energies=        -1297.637047

                     E (Thermal)             CV                S
                      KCal/Mol        Cal/Mol-Kelvin    Cal/Mol-Kelvin
 Total                  245.673             77.907            142.991
 Electronic               0.000              0.000              0.000
 Translational            0.889              2.981             43.384
 Rotational               0.889              2.981             35.161
 Vibrational            243.896             71.945             64.445
 Vibration     1          0.593              1.984              5.979
 Vibration     2          0.596              1.976              4.701
 Vibration     3          0.596              1.975              4.561
 Vibration     4          0.599              1.964              3.949
 Vibration     5          0.602              1.957              3.684
 Vibration     6          0.608              1.934              3.129
 Vibration     7          0.619              1.900              2.643
 Vibration     8          0.625              1.882              2.456
 Vibration     9          0.629              1.866              2.324
 Vibration    10          0.640              1.834              2.095
 Vibration    11          0.649              1.804              1.922
 Vibration    12          0.672              1.734              1.615
 Vibration    13          0.679              1.715              1.547
 Vibration    14          0.680              1.711              1.534
 Vibration    15          0.688              1.687              1.458
 Vibration    16          0.695              1.667              1.396
 Vibration    17          0.697              1.662              1.382
 Vibration    18          0.703              1.643              1.329
 Vibration    19          0.718              1.600              1.222
 Vibration    20          0.729              1.570              1.156
 Vibration    21          0.747              1.522              1.056
 Vibration    22          0.765              1.474              0.969
 Vibration    23          0.780              1.434              0.904
 Vibration    24          0.785              1.422              0.884
 Vibration    25          0.801              1.381              0.823
 Vibration    26          0.832              1.304              0.722
 Vibration    27          0.848              1.268              0.678
 Vibration    28          0.854              1.254              0.663
 Vibration    29          0.884              1.185              0.589
 Vibration    30          0.917              1.115              0.522
 Vibration    31          0.945              1.058              0.472
 Vibration    32          0.950              1.049              0.464
 Vibration    33          0.969              1.011              0.433

 Normal termination of Gaussian 09 at Fri Mar 25 20:56:53 2016.
