 Gaussian 09, Revision B.01,
 Gaussian 09:  EM64L-G09RevB.01 12-Aug-2010

 ------------------------------------------------
 # freq=raman b3lyp/6-31+g(d,p) geom=connectivity
 ------------------------------------------------

 ------------
 320 5000.com
 ------------
 Symbolic Z-matrix:
 Charge =  0 Multiplicity = 1

                         Standard orientation:
 ---------------------------------------------------------------------
 Center     Atomic      Atomic             Coordinates (Angstroms)
 Number     Number       Type             X           Y           Z
 ---------------------------------------------------------------------
      1          8           0        4.939031   -0.308747   -0.433016
      2          6           0        3.669125   -0.191984    0.225289
      3          6           0        3.161659    1.216999   -0.037830
      4          8           0        4.075395    2.269442    0.301849
      5          1           0        5.001244    1.971962    0.065496
      6          6           0        1.737842    1.537858    0.386771
      7          8           0        1.494883    2.824017   -0.201913
      8          1           0        0.514955    3.002270   -0.114400
      9          6           0        2.933056   -2.586264    0.049255
     10          8           0        4.177219   -3.204400   -0.310412
     11          1           0        3.934887   -4.175057   -0.304873
     12          6           0        2.590854   -1.140631   -0.271529
     13          8           0        1.273795   -0.865502    0.227434
     14          6           0        0.830487    0.444760   -0.153727
     15          8           0       -0.344670    0.566498    0.660860
     16          6           0       -1.483374    0.210395   -0.136166
     17          6           0       -1.855164   -1.170119    0.380369
     18          8           0       -0.930745   -2.170387   -0.070317
     19          1           0       -0.025199   -1.822341    0.175994
     20          6           0       -3.245531   -1.469154   -0.155870
     21          8           0       -3.746854   -2.721506    0.334702
     22          1           0       -4.670164   -2.930216    0.012189
     23          6           0       -2.264953    2.545760   -0.499224
     24          8           0       -1.246720    3.384789    0.065700
     25          1           0       -1.463737    4.359836    0.024086
     26          6           0       -2.554562    1.232759    0.209103
     27          8           0       -3.870359    0.839961   -0.207851
     28          6           0       -4.257940   -0.438285    0.315469
     29          8           0       -5.390044   -0.655191   -0.540807
     30          1           0       -6.160232   -0.862637   -0.006600
     31          1           0        5.628255   -0.440095    0.222208
     32          1           0        2.161794   -3.183191   -0.390896
     33          1           0        2.841172   -2.689256    1.110316
     34          1           0        2.553686   -1.049062   -1.336955
     35          1           0        3.802811   -0.329048    1.278019
     36          1           0        3.115931    1.262451   -1.105886
     37          1           0        1.668186    1.592928    1.453081
     38          1           0        0.624181    0.537539   -1.199542
     39          1           0       -3.174126    3.109119   -0.529728
     40          1           0       -1.981830    2.319478   -1.505970
     41          1           0       -2.555510    1.396618    1.266482
     42          1           0       -1.253380    0.202087   -1.181122
     43          1           0       -1.878108   -1.158689    1.450062
     44          1           0       -3.221956   -1.486152   -1.225475
     45          1           0       -4.479299   -0.452882    1.362220
 ---------------------------------------------------------------------

 SCF Done:  E(RB3LYP) =  -1297.92745331     A.U. after   13 cycles

 The electronic state is 1-A.
 Alpha  occ. eigenvalues --  -19.21111 -19.19564 -19.19072 -19.18399 -19.18163
 Alpha  occ. eigenvalues --  -19.18104 -19.17583 -19.16043 -19.15263 -19.14581
 Alpha  occ. eigenvalues --  -19.13816 -10.31570 -10.30740 -10.26662 -10.25917
 Alpha  occ. eigenvalues --  -10.25731 -10.25654 -10.25513 -10.24663 -10.24561
 Alpha  occ. eigenvalues --  -10.24386 -10.24078 -10.23548  -1.11703  -1.09342
 Alpha  occ. eigenvalues --   -1.05792  -1.05222  -1.04681  -1.03364  -1.02880
 Alpha  occ. eigenvalues --   -1.02087  -1.01755  -1.00101  -0.99767  -0.82444
 Alpha  occ. eigenvalues --   -0.80808  -0.79135  -0.78238  -0.71767  -0.69942
 Alpha  occ. eigenvalues --   -0.67369  -0.65622  -0.63562  -0.63042  -0.61438
 Alpha  occ. eigenvalues --   -0.60298  -0.56776  -0.56336  -0.55256  -0.54665
 Alpha  occ. eigenvalues --   -0.54188  -0.53353  -0.52941  -0.51741  -0.51499
 Alpha  occ. eigenvalues --   -0.50398  -0.50010  -0.49742  -0.48433  -0.46681
 Alpha  occ. eigenvalues --   -0.46183  -0.45114  -0.44344  -0.43720  -0.42743
 Alpha  occ. eigenvalues --   -0.42357  -0.41401  -0.41071  -0.40299  -0.39632
 Alpha  occ. eigenvalues --   -0.38963  -0.38427  -0.37643  -0.36818  -0.36348
 Alpha  occ. eigenvalues --   -0.36032  -0.34627  -0.34335  -0.34165  -0.33860
 Alpha  occ. eigenvalues --   -0.32801  -0.31285  -0.30852  -0.29968  -0.29703
 Alpha  occ. eigenvalues --   -0.29204  -0.28944  -0.27821  -0.27585  -0.26516
 Alpha  occ. eigenvalues --   -0.26236
 Alpha virt. eigenvalues --   -0.02000  -0.01952  -0.01781  -0.00448   0.00068
 Alpha virt. eigenvalues --    0.00925   0.01806   0.02287   0.03047   0.03493
 Alpha virt. eigenvalues --    0.03870   0.04225   0.05069   0.05444   0.05712

 Mulliken atomic charges:
              1
     1  O   -0.541146
     2  C   -0.103903
     3  C    0.022452
     4  O   -0.519352
     5  H    0.355043
     6  C    0.110482
     7  O   -0.531746
     8  H    0.429844
     9  C   -0.143594
    10  O   -0.512367
    11  H    0.354093
    12  C    0.216311
    13  O   -0.446832
    14  C   -0.186573
    15  O   -0.271942
    16  C    0.389913
    17  C   -0.114416
    18  O   -0.546617
    19  H    0.449086
    20  C    0.088655
    21  O   -0.524500
    22  H    0.350384
    23  C   -0.040061
    24  O   -0.640798
    25  H    0.400959
    26  C   -0.101882
    27  O   -0.300393
    28  C    0.267536
    29  O   -0.575176
    30  H    0.358027
    31  H    0.371991
    32  H    0.136918
    33  H    0.139181
    34  H    0.136716
    35  H    0.131922
    36  H    0.127945
    37  H    0.148474
    38  H    0.134290
    39  H    0.140761
    40  H    0.136124
    41  H    0.144486
    42  H    0.120560
    43  H    0.142442
    44  H    0.151942
    45  H    0.144760
 Sum of Mulliken atomic charges =   0.00000

 Dipole moment (field-independent basis, Debye):
    X=             -2.7423    Y=             -0.1108    Z=              1.4392  Tot=              3.0990
 Quadrupole moment (field-independent basis, Debye-Ang):
   XX=           -120.7524   YY=           -137.7842   ZZ=           -138.5588
   XY=            -16.2697   XZ=             -0.2807   YZ=             -2.0235

  Exact polarizability: 226.787   2.453 192.454   0.122  -0.990 140.273
 Approx polarizability: 264.849   2.477 248.861  -0.389  -1.105 230.888

 ******    7 imaginary frequencies (negative Signs) ******

                     1                      2                      3
                     A                      A                      A
 Frequencies --  -322.0338              -293.6133              -283.9291
 Red. masses --     1.5907                 1.2243                 1.1601
 Frc consts  --     0.0972                 0.0622                 0.0551
 IR Inten    --    25.2089                92.5955               130.5771
 Raman Activ --     0.2083                 0.8722                 1.3417

                     4                      5                      6
                     A                      A                      A
 Frequencies --  -239.1490               -67.2543               -51.3419
 Red. masses --     1.8247                 6.8576                 5.8853
 Frc consts  --     0.0615                 0.0183                 0.0091
 IR Inten    --     3.1554                 1.3758                 0.7001
 Raman Activ --     0.0587                 0.0639                 0.0333

                     7                      8                      9
                     A                      A                      A
 Frequencies --   -25.3699                41.4809                60.5593
 Red. masses --     6.4327                 6.3814                 6.8761
 Frc consts  --     0.0024                 0.0065                 0.0149
 IR Inten    --     0.7944                 0.4691                 1.6280
 Raman Activ --     0.0302                 0.0325                 0.0413

                    10                     11                     12
                     A                      A                      A
 Frequencies --    77.9320                79.9745               111.2963
 Red. masses --     6.2631                 6.6225                 5.9124
 Frc consts  --     0.0224                 0.0250                 0.0431
 IR Inten    --     0.5938                 0.3227                 1.6293
 Raman Activ --     0.2282                 0.1493                 0.0668

                    13                     14                     15
                     A                      A                      A
 Frequencies --   148.1337               172.3389               195.7177
 Red. masses --     6.3682                 6.5677                 6.4938
 Frc consts  --     0.0823                 0.1149                 0.1466
 IR Inten    --     4.8969                 0.2682                 2.5561
 Raman Activ --     0.2678                 0.1842                 0.1115

                    16                     17                     18
                     A                      A                      A
 Frequencies --   216.6561               233.6139               259.0714
 Red. masses --     6.9878                 5.9752                 4.5250
 Frc consts  --     0.1933                 0.1921                 0.1789
 IR Inten    --     0.1313                 1.0759                13.2866
 Raman Activ --     2.8741                 0.5281                 0.2796

                    19                     20                     21
                     A                      A                      A
 Frequencies --   290.3447               298.0363               309.3377
 Red. masses --     4.4220                 5.8922                 5.2060
 Frc consts  --     0.2196                 0.3084                 0.2935
 IR Inten    --     5.3769                 0.2610                 3.0104
 Raman Activ --     0.0973                 0.9676                 0.5165

                    22                     23                     24
                     A                      A                      A
 Frequencies --   313.9588               326.6277               336.4841
 Red. masses --     6.7074                 5.2668                 6.2835
 Frc consts  --     0.3895                 0.3311                 0.4192
 IR Inten    --     3.0422                10.0769                 4.2691
 Raman Activ --     3.3180                 0.1127                 3.3813

                    25                     26                     27
                     A                      A                      A
 Frequencies --   344.2267               366.9101               387.6728
 Red. masses --     6.2575                 4.5915                 5.6275
 Frc consts  --     0.4369                 0.3642                 0.4983
 IR Inten    --     2.9314                 5.0984                 3.4214
 Raman Activ --     0.5003                 0.3454                 1.4831

                    28                     29                     30
                     A                      A                      A
 Frequencies --   412.7932               426.8241               443.7535
 Red. masses --     4.2975                 5.7641                 5.1555
 Frc consts  --     0.4314                 0.6187                 0.5981
 IR Inten    --    19.8051                 3.0017                 7.4137
 Raman Activ --     3.0667                 5.6656                 2.4203

                    31                     32                     33
                     A                      A                      A
 Frequencies --   460.5304               482.0356               500.1991
 Red. masses --     5.6116                 5.1687                 4.6041
 Frc consts  --     0.7012                 0.7076                 0.6787
 IR Inten    --     8.6824                 6.0856                 7.0315
 Raman Activ --     1.6366                 7.9038                 0.9473

                    34                     35                     36
                     A                      A                      A
 Frequencies --   527.1361               555.0251               581.9361
 Red. masses --     3.1282                 3.1682                 4.6442
 Frc consts  --     0.5121                 0.5750                 0.9266
 IR Inten    --    16.4921                 3.6884                 2.6642
 Raman Activ --     0.9111                 2.9597                 1.9786

                    37                     38                     39
                     A                      A                      A
 Frequencies --   610.4190               619.8139               644.3365
 Red. masses --     3.3266                 4.5561                 2.6577
 Frc consts  --     0.7303                 1.0313                 0.6501
 IR Inten    --    32.8579                 2.0988                49.3374
 Raman Activ --     0.4208                 0.3917                 0.8911

                    40                     41                     42
                     A                      A                      A
 Frequencies --   651.5148               669.0489               702.6184
 Red. masses --     1.3743                 3.9497                 1.0937
 Frc consts  --     0.3437                 1.0417                 0.3181
 IR Inten    --    70.1941                52.3205                98.6530
 Raman Activ --     1.6266                 1.1593                 1.4249

                    43                     44                     45
                     A                      A                      A
 Frequencies --   707.3549               719.5505               730.0551
 Red. masses --     5.1856                 1.0550                 1.0610
 Frc consts  --     1.5287                 0.3218                 0.3332
 IR Inten    --     5.7073                99.2302                98.9155
 Raman Activ --     2.2108                 2.1864                 1.8857

                    46                     47                     48
                     A                      A                      A
 Frequencies --   833.7784               846.8479               856.0015
 Red. masses --     1.1042                 1.7201                 1.3287
 Frc consts  --     0.4523                 0.7268                 0.5736
 IR Inten    --   121.2792                 5.1479                41.6692
 Raman Activ --     2.8028                 0.7141                 0.5480

                    49                     50                     51
                     A                      A                      A
 Frequencies --   881.1666               941.0508               962.6124
 Red. masses --     1.2896                 5.2059                 5.0235
 Frc consts  --     0.5900                 2.7162                 2.7426
 IR Inten    --    39.8669               116.8376                51.1349
 Raman Activ --     0.4370                 3.8982                 0.4908

                    52                     53                     54
                     A                      A                      A
 Frequencies --   991.2130               996.4431              1010.9892
 Red. masses --     4.7217                 5.3108                 5.1901
 Frc consts  --     2.7332                 3.1068                 3.1255
 IR Inten    --    85.8209                12.7276               132.0173
 Raman Activ --     4.0753                 1.9590                 1.9309

                    55                     56                     57
                     A                      A                      A
 Frequencies --  1018.9430              1024.3500              1032.8695
 Red. masses --     6.8629                 4.6785                 6.6014
 Frc consts  --     4.1981                 2.8924                 4.1493
 IR Inten    --   114.2318               110.0401                76.5263
 Raman Activ --     1.3266                 1.5689                 5.7993

                    58                     59                     60
                     A                      A                      A
 Frequencies --  1046.3097              1060.9502              1071.1086
 Red. masses --     2.6252                 2.6367                 4.4891
 Frc consts  --     1.6933                 1.7486                 3.0344
 IR Inten    --   201.3339               163.5851                64.2269
 Raman Activ --     3.2352                 5.9473                 2.5771

                    61                     62                     63
                     A                      A                      A
 Frequencies --  1073.3733              1074.3086              1091.2622
 Red. masses --     4.2566                 2.2514                 3.9790
 Frc consts  --     2.8895                 1.5310                 2.7918
 IR Inten    --   121.2824                22.7114                13.7486
 Raman Activ --     2.8119                14.0967                 1.0790

                    64                     65                     66
                     A                      A                      A
 Frequencies --  1102.1694              1108.0077              1113.7697
 Red. masses --     3.6391                 2.5463                 2.0529
 Frc consts  --     2.6046                 1.8418                 1.5004
 IR Inten    --   159.5639                52.8144                63.1583
 Raman Activ --     1.8475                 7.8228                 3.2733

                    67                     68                     69
                     A                      A                      A
 Frequencies --  1115.3936              1123.9575              1134.5471
 Red. masses --     2.3629                 2.2752                 2.6474
 Frc consts  --     1.7320                 1.6934                 2.0078
 IR Inten    --     4.0210                50.1759                33.2278
 Raman Activ --     8.7884                 7.9237                 2.3696

                    70                     71                     72
                     A                      A                      A
 Frequencies --  1138.3089              1144.5174              1150.4759
 Red. masses --     2.5226                 1.9266                 2.3145
 Frc consts  --     1.9258                 1.4870                 1.8049
 IR Inten    --    14.7634                 3.0522                34.0106
 Raman Activ --    18.7531                 4.8602                 0.3325

                    73                     74                     75
                     A                      A                      A
 Frequencies --  1154.5026              1169.7842              1183.7902
 Red. masses --     2.3242                 2.2024                 1.6825
 Frc consts  --     1.8252                 1.7757                 1.3892
 IR Inten    --     5.3225                 9.4343                22.4507
 Raman Activ --     5.1083                 1.7621                 3.5450

                    76                     77                     78
                     A                      A                      A
 Frequencies --  1191.4601              1205.9135              1215.3584
 Red. masses --     1.5009                 1.3630                 1.3256
 Frc consts  --     1.2553                 1.1678                 1.1536
 IR Inten    --    22.8006                11.0078                19.4676
 Raman Activ --     4.9346                 0.8533                 1.3866

                    79                     80                     81
                     A                      A                      A
 Frequencies --  1228.1021              1236.4322              1246.4402
 Red. masses --     1.3641                 1.3353                 1.2937
 Frc consts  --     1.2122                 1.2027                 1.1842
 IR Inten    --    11.8159                 2.5893                22.2816
 Raman Activ --     0.6616                 0.6053                 2.2124

                    82                     83                     84
                     A                      A                      A
 Frequencies --  1262.1204              1265.6302              1274.8182
 Red. masses --     1.2753                 1.3549                 1.2670
 Frc consts  --     1.1969                 1.2787                 1.2132
 IR Inten    --    21.3903                18.2745                24.9772
 Raman Activ --     3.8285                 5.2537                 1.4532

                    85                     86                     87
                     A                      A                      A
 Frequencies --  1295.7393              1302.1891              1309.1569
 Red. masses --     1.3205                 1.3441                 1.2860
 Frc consts  --     1.3063                 1.3429                 1.2986
 IR Inten    --     8.6360                15.6240                67.5565
 Raman Activ --     0.7024                 5.6258                 1.6027

                    88                     89                     90
                     A                      A                      A
 Frequencies --  1310.2440              1313.8560              1329.0140
 Red. masses --     1.2149                 1.3367                 1.4751
 Frc consts  --     1.2288                 1.3595                 1.5351
 IR Inten    --    10.5950                 4.1638                21.4060
 Raman Activ --     9.2173                 2.1098                 2.7411

                    91                     92                     93
                     A                      A                      A
 Frequencies --  1336.2071              1345.5828              1349.1008
 Red. masses --     1.2652                 1.5495                 1.1868
 Frc consts  --     1.3309                 1.6530                 1.2727
 IR Inten    --     6.1235                 4.5384                59.9595
 Raman Activ --     6.0514                 5.8726                 2.1738

                    94                     95                     96
                     A                      A                      A
 Frequencies --  1356.2963              1361.6529              1368.4810
 Red. masses --     1.7126                 1.3377                 1.1858
 Frc consts  --     1.8562                 1.4614                 1.3084
 IR Inten    --     8.1740                 1.5757                35.0668
 Raman Activ --    14.1895                 7.1586                 5.4846

                    97                     98                     99
                     A                      A                      A
 Frequencies --  1377.6375              1393.4739              1400.8410
 Red. masses --     1.2474                 1.4549                 1.7312
 Frc consts  --     1.3949                 1.6645                 2.0016
 IR Inten    --    32.2822                 3.1225                18.7040
 Raman Activ --     2.5134                 6.8046                 3.0433

                   100                    101                    102
                     A                      A                      A
 Frequencies --  1412.9762              1427.4126              1433.8658
 Red. masses --     1.4517                 1.4522                 1.5287
 Frc consts  --     1.7076                 1.7433                 1.8517
 IR Inten    --    21.7279                18.2160                 7.3444
 Raman Activ --     2.6394                 1.4351                 1.6312

                   103                    104                    105
                     A                      A                      A
 Frequencies --  1480.1075              1481.4597              1495.8224
 Red. masses --     1.0817                 1.0809                 1.3472
 Frc consts  --     1.3962                 1.3977                 1.7760
 IR Inten    --     3.9176                 4.2621                18.3119
 Raman Activ --     4.9892                 5.8699                 0.5889

                   106                    107                    108
                     A                      A                      A
 Frequencies --  1502.1867              1544.2163              3259.1657
 Red. masses --     1.2655                 1.2224                 1.0679
 Frc consts  --     1.6825                 1.7174                 6.6834
 IR Inten    --    50.6944                32.6770               717.7011
 Raman Activ --     0.8281                 1.4845               190.5656

                   109                    110                    111
                     A                      A                      A
 Frequencies --  3262.6757              3265.2258              3271.8051
 Red. masses --     1.0599                 1.0796                 1.0588
 Frc consts  --     6.6476                 6.7814                 6.6779
 IR Inten    --    76.7335                 7.8545                81.1127
 Raman Activ --    71.6671                81.7117                77.0276

                   112                    113                    114
                     A                      A                      A
 Frequencies --  3284.0563              3296.4177              3299.0097
 Red. masses --     1.0831                 1.0845                 1.0849
 Frc consts  --     6.8824                 6.9435                 6.9568
 IR Inten    --     7.5172                 3.6503                21.5265
 Raman Activ --   143.3977                 7.0022                49.0486

                   115                    116                    117
                     A                      A                      A
 Frequencies --  3299.7582              3305.2342              3308.2357
 Red. masses --     1.0883                 1.0853                 1.0814
 Frc consts  --     6.9817                 6.9857                 6.9735
 IR Inten    --    19.2874                86.5258               208.7762
 Raman Activ --    11.3102               172.8667                83.5373

                   118                    119                    120
                     A                      A                      A
 Frequencies --  3313.7978              3315.6671              3317.6661
 Red. masses --     1.0864                 1.0990                 1.0795
 Frc consts  --     7.0287                 7.1187                 7.0004
 IR Inten    --    70.4895               121.0291               356.1488
 Raman Activ --    36.7568                40.7316                69.3992

                   121                    122                    123
                     A                      A                      A
 Frequencies --  3323.8160              3327.0989              3333.4359
 Red. masses --     1.0870                 1.0886                 1.1054
 Frc consts  --     7.0756                 7.0997                 7.2372
 IR Inten    --    25.3980                60.9545                55.9624
 Raman Activ --    76.5185                31.7983                27.3577

                   124                    125                    126
                     A                      A                      A
 Frequencies --  3378.3836              3385.4276              3386.3276
 Red. masses --     1.0654                 1.0663                 1.0670
 Frc consts  --     7.1645                 7.2002                 7.2091
 IR Inten    --    29.6648                28.7460                43.3186
 Raman Activ --   117.7778               164.5750               137.2178

                   127                    128                    129
                     A                      A                      A
 Frequencies --  3399.8755              3918.6736              3919.2418
 Red. masses --     1.0689                 1.0674                 1.0678
 Frc consts  --     7.2795                 9.6574                 9.6635
 IR Inten    --    64.2303                56.9151                71.2639
 Raman Activ --   166.3411               128.3655               107.7757

 - Thermochemistry -
 -------------------
 Temperature   298.150 Kelvin.  Pressure   1.00000 Atm.
 Atom     1 has atomic number  8 and mass  15.99491

 Molecular mass:   342.11621 amu.
 Principal axes and moments of inertia in atomic units:
                           1         2         3
     Eigenvalues --  4406.80847********************
           X            0.99997  -0.00743   0.00010
           Y            0.00743   0.99997  -0.00339
           Z           -0.00008   0.00339   0.99999
 This molecule is an asymmetric top.
 Rotational symmetry number  1.
 Warning -- assumption of classical behavior for rotation
           may cause significant error
 Rotational temperatures (Kelvin)      0.01965     0.00731     0.00545
 Rotational constants (GHZ):           0.40953     0.15224     0.11364
    7 imaginary frequencies ignored.
 Zero-point vibrational energy     979101.0 (Joules/Mol)
                                  234.01076 (Kcal/Mol)
 Warning -- explicit consideration of  31 degrees of freedom as
           vibrations may cause significant error
 Vibrational temperatures:     59.68    87.13   112.13   115.07   160.13
          (Kelvin)            213.13   247.96   281.59   311.72   336.12
                              372.75   417.74   428.81   445.07   451.72
                              469.94   484.13   495.26   527.90   557.77
                              593.92   614.10   638.46   662.60   693.54
                              719.67   758.43   798.56   837.28   878.26
                              891.77   927.06   937.38   962.61  1010.91
                             1017.72  1035.27  1050.39  1199.62  1218.42
                             1231.59  1267.80  1353.96  1384.98  1426.13
                             1433.66  1454.59  1466.03  1473.81  1486.07
                             1505.40  1526.47  1541.08  1544.34  1545.69
                             1570.08  1585.77  1594.17  1602.46  1604.80
                             1617.12  1632.36  1637.77  1646.70  1655.28
                             1661.07  1683.06  1703.21  1714.24  1735.04
                             1748.63  1766.96  1778.95  1793.35  1815.91
                             1820.96  1834.18  1864.28  1873.56  1883.58
                             1885.15  1890.34  1912.15  1922.50  1935.99
                             1941.05  1951.41  1959.11  1968.94  1982.11
                             2004.90  2015.50  2032.96  2053.73  2063.01
                             2129.54  2131.49  2152.15  2161.31  2221.78
                             4689.21  4694.26  4697.93  4707.39  4725.02
                             4742.80  4746.53  4747.61  4755.49  4759.81
                             4767.81  4770.50  4773.38  4782.22  4786.95
                             4796.06  4860.73  4870.87  4872.16  4891.66
                             5638.09  5638.91

 Zero-point correction=                           0.372920 (Hartree/Particle)
 Thermal correction to Energy=                    0.391044
 Thermal correction to Enthalpy=                  0.391988
 Thermal correction to Gibbs Free Energy=         0.327338
 Sum of electronic and zero-point Energies=          -1297.554533
 Sum of electronic and thermal Energies=             -1297.536409
 Sum of electronic and thermal Enthalpies=           -1297.535465
 Sum of electronic and thermal Free Energies=        -1297.600115

                     E (Thermal)             CV                S
                      KCal/Mol        Cal/Mol-Kelvin    Cal/Mol-Kelvin
 Total                  245.384             75.148            136.068
 Electronic               0.000              0.000              0.000
 Translational            0.889              2.981             43.384
 Rotational               0.889              2.981             35.072
 Vibrational            243.606             69.187             57.612
 Vibration     1          0.594              1.981              5.187
 Vibration     2          0.597              1.973              4.439
 Vibration     3          0.599              1.964              3.942
 Vibration     4          0.600              1.963              3.892
 Vibration     5          0.607              1.940              3.246
 Vibration     6          0.618              1.905              2.696
 Vibration     7          0.626              1.877              2.410
 Vibration     8          0.636              1.846              2.173
 Vibration     9          0.645              1.816              1.987
 Vibration    10          0.654              1.789              1.851
 Vibration    11          0.668              1.747              1.668
 Vibration    12          0.686              1.692              1.472
 Vibration    13          0.691              1.677              1.428
 Vibration    14          0.699              1.656              1.366
 Vibration    15          0.702              1.647              1.341
 Vibration    16          0.710              1.622              1.277
 Vibration    17          0.717              1.603              1.229
 Vibration    18          0.723              1.587              1.192
 Vibration    19          0.740              1.540              1.093
 Vibration    20          0.756              1.497              1.009
 Vibration    21          0.777              1.442              0.917
 Vibration    22          0.788              1.412              0.869
 Vibration    23          0.803              1.375              0.815
 Vibration    24          0.818              1.338              0.765
 Vibration    25          0.838              1.290              0.705
 Vibration    26          0.856              1.250              0.658
 Vibration    27          0.882              1.190              0.594
 Vibration    28          0.910              1.129              0.534
 Vibration    29          0.939              1.070              0.482
 Vibration    30          0.969              1.010              0.432
 Vibration    31          0.980              0.990              0.417

 Normal termination of Gaussian 09 at Tue Mar  1 03:31:47 2016.
