 Gaussian 09, Revision B.01,
 Gaussian 09:  EM64L-G09RevB.01 12-Aug-2010

 --------------------------------------------------
 # freq=raman b3lyp/6-31+g(2df,p) geom=connectivity
 --------------------------------------------------

 ------------
 550 5000.com
 ------------
 Symbolic Z-matrix:
 Charge =  0 Multiplicity = 1

                         Standard orientation:
 ---------------------------------------------------------------------
 Center     Atomic      Atomic             Coordinates (Angstroms)
 Number     Number       Type             X           Y           Z
 ---------------------------------------------------------------------
      1          8           0       -5.102284    0.190345   -0.834206
      2          6           0       -3.934902   -0.026673   -0.028429
      3          6           0       -3.128240   -1.207452   -0.543208
      4          8           0       -4.050823   -2.275086   -0.804529
      5          1           0       -5.004390   -2.013129   -0.657691
      6          6           0       -1.839172   -1.506208    0.206851
      7          8           0       -1.176758   -2.707769   -0.212758
      8          1           0       -1.766757   -3.463655    0.072713
      9          6           0       -3.252333    2.487595    0.236593
     10          8           0       -2.337811    3.585500    0.371219
     11          1           0       -2.869851    4.419031    0.517157
     12          6           0       -2.876890    1.059557   -0.126473
     13          8           0       -1.811144    0.864086    0.815565
     14          6           0       -1.037199   -0.217120    0.274580
     15          8           0        0.172054   -0.283931    1.044668
     16          6           0        1.429929   -0.172116    0.363653
     17          6           0        1.991946    1.237508    0.445765
     18          8           0        1.156946    2.384620    0.229572
     19          1           0        0.262464    2.135858    0.602959
     20          6           0        3.164764    1.265634   -0.520017
     21          8           0        3.690913    2.534491   -0.934112
     22          1           0        2.946787    3.163634   -1.159430
     23          6           0        2.135253   -2.588582    0.930331
     24          8           0        1.770027   -3.166229   -0.330843
     25          1           0        0.858812   -2.832231   -0.572186
     26          6           0        2.509420   -1.116475    0.868560
     27          8           0        3.662688   -1.013046    0.021678
     28          6           0        4.264675    0.274072   -0.174860
     29          8           0        5.373400    0.236237   -1.084587
     30          1           0       -5.871313   -0.170711   -0.387180
     31          1           0       -3.771201    2.424223    1.170220
     32          1           0       -3.971093    2.794807   -0.494095
     33          1           0       -2.469126    1.051959   -1.115700
     34          1           0       -4.211110   -0.184386    0.993205
     35          1           0       -2.795359   -0.902462   -1.513296
     36          1           0       -2.138840   -1.699438    1.215692
     37          1           0       -0.767880    0.046175   -0.726940
     38          1           0        6.094510   -0.259469   -0.689775
     39          1           0        4.660796    0.575425    0.772333
     40          1           0        2.745204    0.870115   -1.421368
     41          1           0        2.398292    1.343704    1.429892
     42          1           0        1.259606   -0.395635   -0.668785
     43          1           0        2.788946   -0.803719    1.852912
     44          1           0        1.311235   -2.699547    1.603816
     45          1           0        2.969088   -3.132745    1.322130
 ---------------------------------------------------------------------

 SCF Done:  E(RB3LYP) =  -1297.97600850     A.U. after   14 cycles

 The electronic state is 1-A.
 Alpha  occ. eigenvalues --  -19.20561 -19.20127 -19.19549 -19.18576 -19.18102
 Alpha  occ. eigenvalues --  -19.16921 -19.16259 -19.15909 -19.15701 -19.14395
 Alpha  occ. eigenvalues --  -19.13687 -10.32277 -10.28974 -10.28516 -10.27596
 Alpha  occ. eigenvalues --  -10.27428 -10.26788 -10.25585 -10.24831 -10.24733
 Alpha  occ. eigenvalues --  -10.24253 -10.23566 -10.22636  -1.11061  -1.08553
 Alpha  occ. eigenvalues --   -1.06744  -1.06230  -1.05176  -1.03829  -1.03148
 Alpha  occ. eigenvalues --   -1.02786  -1.01463  -1.00170  -0.99860  -0.83973
 Alpha  occ. eigenvalues --   -0.82682  -0.79648  -0.77989  -0.72602  -0.70089
 Alpha  occ. eigenvalues --   -0.68009  -0.65112  -0.64373  -0.63270  -0.61484
 Alpha  occ. eigenvalues --   -0.60326  -0.58237  -0.56751  -0.55403  -0.54179
 Alpha  occ. eigenvalues --   -0.54042  -0.53645  -0.53362  -0.52529  -0.51759
 Alpha  occ. eigenvalues --   -0.50346  -0.50164  -0.49384  -0.48490  -0.47419
 Alpha  occ. eigenvalues --   -0.47020  -0.45185  -0.44614  -0.44410  -0.44083
 Alpha  occ. eigenvalues --   -0.43381  -0.42993  -0.40930  -0.40362  -0.40050
 Alpha  occ. eigenvalues --   -0.39341  -0.38390  -0.37337  -0.37267  -0.36365
 Alpha  occ. eigenvalues --   -0.35938  -0.34855  -0.34828  -0.34085  -0.33692
 Alpha  occ. eigenvalues --   -0.32776  -0.32333  -0.31095  -0.30729  -0.30388
 Alpha  occ. eigenvalues --   -0.29823  -0.29215  -0.28694  -0.27187  -0.26461
 Alpha  occ. eigenvalues --   -0.26302
 Alpha virt. eigenvalues --   -0.04935  -0.02183  -0.01628  -0.00678   0.00542
 Alpha virt. eigenvalues --    0.00881   0.01561   0.02057   0.02556   0.03311
 Alpha virt. eigenvalues --    0.03541   0.04403   0.04639   0.05000   0.05635

 Mulliken atomic charges:
              1
     1  O   -0.418211
     2  C   -0.316748
     3  C    0.087215
     4  O   -0.482237
     5  H    0.319833
     6  C   -0.126892
     7  O   -0.445888
     8  H    0.370862
     9  C   -0.482922
    10  O   -0.444559
    11  H    0.351648
    12  C    0.436540
    13  O   -0.058395
    14  C    0.081255
    15  O   -0.119103
    16  C   -0.133278
    17  C    0.013341
    18  O   -0.464978
    19  H    0.378071
    20  C   -0.069464
    21  O   -0.459852
    22  H    0.357114
    23  C   -0.468893
    24  O   -0.392295
    25  H    0.370548
    26  C    0.057104
    27  O   -0.083395
    28  C    0.079467
    29  O   -0.424319
    30  H    0.341908
    31  H    0.135931
    32  H    0.148349
    33  H    0.124092
    34  H    0.142619
    35  H    0.121787
    36  H    0.129270
    37  H    0.126038
    38  H    0.336793
    39  H    0.109807
    40  H    0.113357
    41  H    0.109421
    42  H    0.122897
    43  H    0.118619
    44  H    0.155376
    45  H    0.152170
 Sum of Mulliken atomic charges =   0.00000

 Dipole moment (field-independent basis, Debye):
    X=             -8.6727    Y=             -0.0493    Z=              3.7389  Tot=              9.4445
 Quadrupole moment (field-independent basis, Debye-Ang):
   XX=           -114.1275   YY=           -145.5851   ZZ=           -142.4184
   XY=             -7.0152   XZ=              5.3682   YZ=             -7.1792

  Exact polarizability: 228.082   0.850 197.182   0.061  -1.898 148.661
 Approx polarizability: 275.562   0.489 259.951  -1.472  -0.845 243.928

 ******    7 imaginary frequencies (negative Signs) ******

                     1                      2                      3
                     A                      A                      A
 Frequencies --  -336.0498              -208.3214              -190.0355
 Red. masses --     1.6281                 1.3371                 1.1609
 Frc consts  --     0.1083                 0.0342                 0.0247
 IR Inten    --     3.0085                91.5022               113.6712
 Raman Activ --     0.0614                 0.7688                 1.2533

                     4                      5                      6
                     A                      A                      A
 Frequencies --   -77.7281               -69.8022               -55.0770
 Red. masses --     5.6601                 2.4061                 6.3170
 Frc consts  --     0.0201                 0.0069                 0.0113
 IR Inten    --     4.9890                 0.9954                 2.3265
 Raman Activ --     0.1916                 0.1236                 0.0188

                     7                      8                      9
                     A                      A                      A
 Frequencies --   -18.8317                62.5220                67.4781
 Red. masses --     6.2711                 6.3401                 3.8599
 Frc consts  --     0.0013                 0.0146                 0.0104
 IR Inten    --     1.1506                 2.3478                 1.3948
 Raman Activ --     0.1972                 0.0354                 0.2370

                    10                     11                     12
                     A                      A                      A
 Frequencies --    78.8433               109.1343               118.6442
 Red. masses --     6.2759                 5.7038                 6.8917
 Frc consts  --     0.0230                 0.0400                 0.0572
 IR Inten    --     3.2432                 4.9785                 0.4260
 Raman Activ --     0.1415                 0.2643                 0.3934

                    13                     14                     15
                     A                      A                      A
 Frequencies --   124.1331               151.4884               167.1649
 Red. masses --     5.3172                 5.8814                 5.4406
 Frc consts  --     0.0483                 0.0795                 0.0896
 IR Inten    --     1.3005                 0.9995                 0.4177
 Raman Activ --     0.0917                 0.6727                 0.1282

                    16                     17                     18
                     A                      A                      A
 Frequencies --   200.4897               238.2640               257.3915
 Red. masses --     6.0948                 4.9011                 5.3192
 Frc consts  --     0.1443                 0.1639                 0.2076
 IR Inten    --     7.0755                 0.8711                 1.6464
 Raman Activ --     0.2432                 2.4119                 1.1145

                    19                     20                     21
                     A                      A                      A
 Frequencies --   262.7552               275.7478               283.9363
 Red. masses --     5.4659                 5.8346                 4.7451
 Frc consts  --     0.2223                 0.2614                 0.2254
 IR Inten    --     2.3835                 1.8389                11.2082
 Raman Activ --     1.2457                 0.8454                 0.4322

                    22                     23                     24
                     A                      A                      A
 Frequencies --   290.6162               297.4972               321.5339
 Red. masses --     5.5806                 5.8512                 5.8159
 Frc consts  --     0.2777                 0.3051                 0.3543
 IR Inten    --     5.0544                 5.4546                 5.5193
 Raman Activ --     0.4745                 2.0215                 1.2244

                    25                     26                     27
                     A                      A                      A
 Frequencies --   331.3679               353.0049               398.9898
 Red. masses --     7.3008                 4.0742                 4.0598
 Frc consts  --     0.4723                 0.2991                 0.3808
 IR Inten    --     1.3991                 1.4687                 8.9503
 Raman Activ --     2.4700                 4.3804                 0.8809

                    28                     29                     30
                     A                      A                      A
 Frequencies --   401.0530               403.4093               414.5899
 Red. masses --     6.2632                 5.8924                 6.0587
 Frc consts  --     0.5935                 0.5650                 0.6136
 IR Inten    --    19.8240                 1.3779                 7.8999
 Raman Activ --     2.6576                 2.5777                 2.4154

                    31                     32                     33
                     A                      A                      A
 Frequencies --   467.4608               473.2262               492.8572
 Red. masses --     4.5363                 5.8135                 4.2374
 Frc consts  --     0.5840                 0.7671                 0.6064
 IR Inten    --     1.6295                 2.1106                 9.4155
 Raman Activ --     1.7072                 2.3459                 9.5253

                    34                     35                     36
                     A                      A                      A
 Frequencies --   499.8219               516.9407               550.6016
 Red. masses --     3.2795                 4.6986                 4.0331
 Frc consts  --     0.4827                 0.7398                 0.7204
 IR Inten    --    29.8241                 9.2033                24.1830
 Raman Activ --     0.6523                 4.9352                 0.9017

                    37                     38                     39
                     A                      A                      A
 Frequencies --   558.1187               570.4884               590.2478
 Red. masses --     3.2636                 1.8573                 1.9420
 Frc consts  --     0.5990                 0.3561                 0.3986
 IR Inten    --    30.9646                24.5457                20.9599
 Raman Activ --     1.6188                 2.7439                 0.4915

                    40                     41                     42
                     A                      A                      A
 Frequencies --   633.8293               653.1681               672.2068
 Red. masses --     2.8383                 5.5204                 1.0590
 Frc consts  --     0.6718                 1.3876                 0.2819
 IR Inten    --    36.8389                14.2261               104.5162
 Raman Activ --     0.9704                 0.0845                 1.9563

                    43                     44                     45
                     A                      A                      A
 Frequencies --   698.7134               704.9042               714.1405
 Red. masses --     3.4225                 1.0981                 1.0906
 Frc consts  --     0.9845                 0.3215                 0.3277
 IR Inten    --     6.6406               106.3896                96.3545
 Raman Activ --     0.4746                 1.7847                 1.1038

                    46                     47                     48
                     A                      A                      A
 Frequencies --   777.9281               784.9791               851.3853
 Red. masses --     1.0815                 1.0734                 2.5714
 Frc consts  --     0.3856                 0.3897                 1.0982
 IR Inten    --   115.0571                85.6182                 3.7803
 Raman Activ --     2.2645                 1.0808                 1.9622

                    49                     50                     51
                     A                      A                      A
 Frequencies --   868.8262               884.2551               941.4228
 Red. masses --     2.7406                 2.9371                 5.9973
 Frc consts  --     1.2189                 1.3531                 3.1317
 IR Inten    --     3.0581                22.1913                70.9608
 Raman Activ --     0.9471                 1.9601                 1.0688

                    52                     53                     54
                     A                      A                      A
 Frequencies --   956.5668               968.7206               983.5112
 Red. masses --     6.3932                 4.8350                 4.7757
 Frc consts  --     3.4467                 2.6733                 2.7218
 IR Inten    --   284.0346                32.1547               132.1609
 Raman Activ --     1.3933                 3.1044                 0.7268

                    55                     56                     57
                     A                      A                      A
 Frequencies --   994.4471              1011.7017              1017.6246
 Red. masses --     5.1352                 5.5169                 4.6480
 Frc consts  --     2.9920                 3.3270                 2.8359
 IR Inten    --     5.9835               166.4765               356.7591
 Raman Activ --     2.6094                 0.3286                 1.2592

                    58                     59                     60
                     A                      A                      A
 Frequencies --  1026.6319              1031.4125              1049.3505
 Red. masses --     5.2547                 4.0982                 3.7200
 Frc consts  --     3.2630                 2.5687                 2.4134
 IR Inten    --    47.5864               244.5701                30.5780
 Raman Activ --     4.6889                 1.9681                 0.7611

                    61                     62                     63
                     A                      A                      A
 Frequencies --  1054.8494              1058.0662              1072.7957
 Red. masses --     3.2972                 4.1134                 3.5471
 Frc consts  --     2.1616                 2.7131                 2.4052
 IR Inten    --    97.5518                71.5250                19.6099
 Raman Activ --     2.3334                 2.6928                12.8280

                    64                     65                     66
                     A                      A                      A
 Frequencies --  1091.7788              1096.5383              1109.4921
 Red. masses --     3.2146                 2.8835                 2.7453
 Frc consts  --     2.2576                 2.0428                 1.9911
 IR Inten    --   145.5958                29.3295                13.7978
 Raman Activ --     4.6840                 7.0882                 4.5780

                    67                     68                     69
                     A                      A                      A
 Frequencies --  1116.6675              1133.7179              1150.3433
 Red. masses --     3.3633                 2.9114                 2.8890
 Frc consts  --     2.4709                 2.2047                 2.2525
 IR Inten    --    31.2139                18.6008                33.8066
 Raman Activ --     6.7165                 3.2074                 5.1809

                    70                     71                     72
                     A                      A                      A
 Frequencies --  1156.9990              1163.4950              1165.7664
 Red. masses --     1.9195                 1.7768                 2.5796
 Frc consts  --     1.5139                 1.4172                 2.0655
 IR Inten    --    45.2785                33.4678                41.0506
 Raman Activ --     2.5154                 2.6007                 0.3085

                    73                     74                     75
                     A                      A                      A
 Frequencies --  1173.2559              1177.4624              1185.4307
 Red. masses --     1.8881                 3.0241                 3.6750
 Frc consts  --     1.5313                 2.4702                 3.0427
 IR Inten    --     7.2563                35.6341                89.1514
 Raman Activ --     0.5692                 6.4508                 1.9683

                    76                     77                     78
                     A                      A                      A
 Frequencies --  1217.6718              1223.7249              1241.0247
 Red. masses --     1.4789                 1.4050                 1.3667
 Frc consts  --     1.2920                 1.2397                 1.2402
 IR Inten    --     2.4925                 5.7134                 2.1369
 Raman Activ --     2.0245                 3.1480                 3.9568

                    79                     80                     81
                     A                      A                      A
 Frequencies --  1254.3648              1260.8858              1268.8986
 Red. masses --     1.3138                 1.3018                 1.2555
 Frc consts  --     1.2179                 1.2194                 1.1910
 IR Inten    --     3.0732                 7.4589                 5.0916
 Raman Activ --     1.2335                 3.4966                 4.4956

                    82                     83                     84
                     A                      A                      A
 Frequencies --  1284.3996              1292.9957              1311.3391
 Red. masses --     1.1890                 1.2501                 1.2653
 Frc consts  --     1.1556                 1.2313                 1.2819
 IR Inten    --     2.7064                31.9248                12.7010
 Raman Activ --     2.7458                 3.1649                 4.8882

                    85                     86                     87
                     A                      A                      A
 Frequencies --  1315.8164              1323.8806              1329.8304
 Red. masses --     1.1593                 1.2645                 1.3060
 Frc consts  --     1.1826                 1.3058                 1.3608
 IR Inten    --    12.8896                 6.7248                 1.0561
 Raman Activ --     2.2058                 2.7908                 3.5954

                    88                     89                     90
                     A                      A                      A
 Frequencies --  1335.7633              1339.6333              1347.9872
 Red. masses --     1.4426                 1.1994                 1.1536
 Frc consts  --     1.5166                 1.2682                 1.2350
 IR Inten    --    35.1271                26.7338                 6.1357
 Raman Activ --     1.9812                 2.1975                 4.5256

                    91                     92                     93
                     A                      A                      A
 Frequencies --  1356.6675              1359.3483              1371.0699
 Red. masses --     1.2082                 1.5819                 1.1753
 Frc consts  --     1.3102                 1.7223                 1.3017
 IR Inten    --     4.5614                 2.2455                34.6026
 Raman Activ --     4.2462                 4.0796                 3.6496

                    94                     95                     96
                     A                      A                      A
 Frequencies --  1374.8596              1384.3843              1390.2733
 Red. masses --     1.1927                 1.2198                 1.5423
 Frc consts  --     1.3283                 1.3773                 1.7564
 IR Inten    --    16.3030                12.4790                 4.1786
 Raman Activ --     3.1546                 0.9828                 8.3253

                    97                     98                     99
                     A                      A                      A
 Frequencies --  1402.2697              1412.4187              1418.5871
 Red. masses --     1.1963                 1.1902                 1.2435
 Frc consts  --     1.3860                 1.3990                 1.4744
 IR Inten    --    13.8342                 8.5741                34.1969
 Raman Activ --    10.9798                 1.2561                 1.7850

                   100                    101                    102
                     A                      A                      A
 Frequencies --  1426.0586              1435.1960              1435.8118
 Red. masses --     1.1828                 1.1403                 1.3765
 Frc consts  --     1.4173                 1.3839                 1.6720
 IR Inten    --    17.7953                 3.3796                15.2754
 Raman Activ --     0.4463                 4.8707                 5.0029

                   103                    104                    105
                     A                      A                      A
 Frequencies --  1449.5049              1451.5111              1464.8968
 Red. masses --     1.1471                 1.4006                 1.3550
 Frc consts  --     1.4200                 1.7386                 1.7132
 IR Inten    --    10.4851                66.9420                11.2021
 Raman Activ --     5.1545                 2.4064                 0.8126

                   106                    107                    108
                     A                      A                      A
 Frequencies --  1465.3316              1475.6460              3241.7827
 Red. masses --     1.3326                 1.1700                 1.0780
 Frc consts  --     1.6858                 1.5011                 6.6751
 IR Inten    --    19.0587                72.3261                 4.3081
 Raman Activ --     3.5357                 2.8590               116.1379

                   109                    110                    111
                     A                      A                      A
 Frequencies --  3247.5675              3249.7325              3250.1967
 Red. masses --     1.0764                 1.0794                 1.0646
 Frc consts  --     6.6884                 6.7162                 6.6263
 IR Inten    --    19.7665                17.6894                27.7638
 Raman Activ --    13.2088                 6.5832               161.0170

                   112                    113                    114
                     A                      A                      A
 Frequencies --  3257.0327              3262.6416              3264.5739
 Red. masses --     1.0824                 1.0752                 1.0795
 Frc consts  --     6.7649                 6.7431                 6.7783
 IR Inten    --     3.5417                29.8271                38.8050
 Raman Activ --     7.9164                30.8403                76.0946

                   115                    116                    117
                     A                      A                      A
 Frequencies --  3267.4297              3274.0017              3277.7672
 Red. masses --     1.0835                 1.0715                 1.0838
 Frc consts  --     6.8152                 6.7668                 6.8607
 IR Inten    --     3.1488                31.4523                14.8238
 Raman Activ --    59.2189               152.4763               139.6733

                   118                    119                    120
                     A                      A                      A
 Frequencies --  3287.0949              3290.9195              3300.4097
 Red. masses --     1.0848                 1.0936                 1.0946
 Frc consts  --     6.9061                 6.9785                 7.0250
 IR Inten    --   108.8730                 9.3241                93.2078
 Raman Activ --     7.5373                30.8954                32.3017

                   121                    122                    123
                     A                      A                      A
 Frequencies --  3326.4408              3343.1008              3346.6934
 Red. masses --     1.0978                 1.0675                 1.0742
 Frc consts  --     7.1568                 7.0296                 7.0888
 IR Inten    --    96.3883                95.3307               171.9821
 Raman Activ --   121.0586                81.2638               111.6325

                   124                    125                    126
                     A                      A                      A
 Frequencies --  3355.7395              3362.1210              3364.1761
 Red. masses --     1.0662                 1.0663                 1.0665
 Frc consts  --     7.0742                 7.1014                 7.1118
 IR Inten    --    33.5679                47.3205               111.5162
 Raman Activ --    91.8625                71.2221                42.5504

                   127                    128                    129
                     A                      A                      A
 Frequencies --  3364.7464              3868.3145              3876.4597
 Red. masses --     1.0673                 1.0678                 1.0669
 Frc consts  --     7.1192                 9.4142                 9.4460
 IR Inten    --    36.1806                72.2286                73.3504
 Raman Activ --   195.1971               103.5097               127.5715

 - Thermochemistry -
 -------------------
 Temperature   298.150 Kelvin.  Pressure   1.00000 Atm.
 Atom     1 has atomic number  8 and mass  15.99491

 Molecular mass:   342.11621 amu.
 Principal axes and moments of inertia in atomic units:
                           1         2         3
     Eigenvalues --  4648.27241********************
           X            0.99998  -0.00629   0.00256
           Y            0.00630   0.99996  -0.00625
           Z           -0.00252   0.00627   0.99998
 This molecule is an asymmetric top.
 Rotational symmetry number  1.
 Warning -- assumption of classical behavior for rotation
           may cause significant error
 Rotational temperatures (Kelvin)      0.01863     0.00731     0.00560
 Rotational constants (GHZ):           0.38826     0.15235     0.11676
    7 imaginary frequencies ignored.
 Zero-point vibrational energy     972343.8 (Joules/Mol)
                                  232.39576 (Kcal/Mol)
 Warning -- explicit consideration of  32 degrees of freedom as
           vibrations may cause significant error
 Vibrational temperatures:     89.96    97.09   113.44   157.02   170.70
          (Kelvin)            178.60   217.96   240.51   288.46   342.81
                              370.33   378.05   396.74   408.52   418.13
                              428.03   462.61   476.76   507.89   574.06
                              577.03   580.42   596.50   672.57   680.87
                              709.11   719.13   743.76   792.19   803.01
                              820.80   849.23   911.94   939.76   967.15
                             1005.29  1014.20  1027.49  1119.26  1129.41
                             1224.95  1250.05  1272.24  1354.50  1376.28
                             1393.77  1415.05  1430.79  1455.61  1464.13
                             1477.09  1483.97  1509.78  1517.69  1522.32
                             1543.51  1570.82  1577.67  1596.31  1606.63
                             1631.17  1655.09  1664.66  1674.01  1677.28
                             1688.05  1694.10  1705.57  1751.96  1760.66
                             1785.56  1804.75  1814.13  1825.66  1847.96
                             1860.33  1886.72  1893.16  1904.77  1913.33
                             1921.86  1927.43  1939.45  1951.94  1955.80
                             1972.66  1978.11  1991.82  2000.29  2017.55
                             2032.15  2041.03  2051.78  2064.92  2065.81
                             2085.51  2088.40  2107.66  2108.28  2123.12
                             4664.20  4672.52  4675.63  4676.30  4686.14
                             4694.21  4696.99  4701.10  4710.55  4715.97
                             4729.39  4734.89  4748.55  4786.00  4809.97
                             4815.14  4828.15  4837.34  4840.29  4841.11
                             5565.63  5577.35

 Zero-point correction=                           0.370346 (Hartree/Particle)
 Thermal correction to Energy=                    0.389002
 Thermal correction to Enthalpy=                  0.389946
 Thermal correction to Gibbs Free Energy=         0.324754
 Sum of electronic and zero-point Energies=          -1297.605662
 Sum of electronic and thermal Energies=             -1297.587006
 Sum of electronic and thermal Enthalpies=           -1297.586062
 Sum of electronic and thermal Free Energies=        -1297.651254

                     E (Thermal)             CV                S
                      KCal/Mol        Cal/Mol-Kelvin    Cal/Mol-Kelvin
 Total                  244.103             76.736            137.209
 Electronic               0.000              0.000              0.000
 Translational            0.889              2.981             43.384
 Rotational               0.889              2.981             35.097
 Vibrational            242.325             70.774             58.727
 Vibration     1          0.597              1.972              4.376
 Vibration     2          0.598              1.970              4.226
 Vibration     3          0.600              1.963              3.919
 Vibration     4          0.606              1.942              3.284
 Vibration     5          0.609              1.934              3.122
 Vibration     6          0.610              1.929              3.035
 Vibration     7          0.619              1.901              2.653
 Vibration     8          0.624              1.883              2.467
 Vibration     9          0.638              1.839              2.129
 Vibration    10          0.656              1.782              1.816
 Vibration    11          0.667              1.750              1.679
 Vibration    12          0.670              1.741              1.643
 Vibration    13          0.677              1.718              1.560
 Vibration    14          0.682              1.703              1.510
 Vibration    15          0.687              1.691              1.470
 Vibration    16          0.691              1.678              1.431
 Vibration    17          0.707              1.632              1.302
 Vibration    18          0.714              1.613              1.253
 Vibration    19          0.729              1.569              1.153
 Vibration    20          0.765              1.472              0.966
 Vibration    21          0.767              1.468              0.959
 Vibration    22          0.769              1.463              0.950
 Vibration    23          0.778              1.439              0.911
 Vibration    24          0.825              1.322              0.745
 Vibration    25          0.830              1.309              0.729
 Vibration    26          0.849              1.266              0.676
 Vibration    27          0.855              1.250              0.659
 Vibration    28          0.872              1.212              0.617
 Vibration    29          0.906              1.138              0.543
 Vibration    30          0.914              1.122              0.528
 Vibration    31          0.927              1.095              0.503
 Vibration    32          0.948              1.053              0.467

 Normal termination of Gaussian 09 at Tue Feb 16 15:43:20 2016.
