 Gaussian 09, Revision B.01,
 Gaussian 09:  EM64L-G09RevB.01 12-Aug-2010

 -------------------------------------------------
 # freq=raman b3lyp/6-31+g(2d,p) geom=connectivity
 -------------------------------------------------

 -----------------
 400 7592/7592.com
 -----------------
 Symbolic Z-matrix:
 Charge =  0 Multiplicity = 1

                         Standard orientation:
 ---------------------------------------------------------------------
 Center     Atomic      Atomic             Coordinates (Angstroms)
 Number     Number       Type             X           Y           Z
 ---------------------------------------------------------------------
      1          8           0        5.030274   -0.314970   -0.206159
      2          6           0        3.656051   -0.028289    0.092312
      3          6           0        3.135735    1.318094   -0.383969
      4          8           0        3.918126    2.422894    0.092329
      5          1           0        4.881307    2.208496   -0.069257
      6          6           0        1.738912    1.513213    0.182441
      7          8           0        1.227873    2.658814   -0.514988
      8          1           0        0.370729    2.988088   -0.119760
      9          6           0        3.175796   -2.493764    0.219425
     10          8           0        4.501495   -2.941357   -0.097427
     11          1           0        4.543209   -3.928117   -0.255741
     12          6           0        2.684671   -1.140574   -0.269526
     13          8           0        1.422460   -0.860495    0.352431
     14          6           0        0.839688    0.341212   -0.172944
     15          8           0       -0.282928    0.470247    0.711013
     16          6           0       -1.494104    0.174326   -0.000240
     17          6           0       -1.868494   -1.281217    0.228182
     18          8           0       -0.924928   -2.181141   -0.369016
     19          1           0       -0.031478   -1.984266    0.034041
     20          6           0       -3.289208   -1.498127   -0.267590
     21          8           0       -3.676908   -2.676712    0.452679
     22          1           0       -4.571741   -2.961925    0.108912
     23          6           0       -2.406022    2.570718   -0.082460
     24          8           0       -1.265478    3.283980    0.417777
     25          1           0       -1.510934    4.245741    0.292550
     26          6           0       -2.634463    1.124878    0.325469
     27          8           0       -3.899954    0.842661   -0.287937
     28          6           0       -4.338692   -0.465016    0.108141
     29          8           0       -5.546624   -0.745530   -0.614118
     30          1           0       -6.295037   -0.704214   -0.014309
     31          1           0       -3.276091    3.122397    0.206557
     32          1           0       -2.349771    2.593090   -1.150746
     33          1           0       -2.775598    1.104185    1.385918
     34          1           0       -1.281875    0.285373   -1.043086
     35          1           0       -1.861549   -1.457648    1.283514
     36          1           0       -3.298779   -1.682840   -1.321482
     37          1           0       -4.523095   -0.490379    1.161826
     38          1           0        5.551987   -0.252574    0.597285
     39          1           0        2.496645   -3.229921   -0.157042
     40          1           0        3.090340   -2.493027    1.286006
     41          1           0        2.558635   -1.170798   -1.331647
     42          1           0        3.620051    0.029007    1.160170
     43          1           0        3.098422    1.334715   -1.453189
     44          1           0        1.765325    1.680742    1.238914
     45          1           0        0.572813    0.284022   -1.207549
 ---------------------------------------------------------------------

 SCF Done:  E(RB3LYP) =  -1297.98872751     A.U. after   13 cycles

 The electronic state is 1-A.
 Alpha  occ. eigenvalues --  -19.18799 -19.18603 -19.18457 -19.18001 -19.17575
 Alpha  occ. eigenvalues --  -19.15864 -19.15667 -19.15634 -19.14917 -19.14281
 Alpha  occ. eigenvalues --  -19.12751 -10.30676 -10.29869 -10.25976 -10.25332
 Alpha  occ. eigenvalues --  -10.25046 -10.24733 -10.24551 -10.24167 -10.23983
 Alpha  occ. eigenvalues --  -10.23953 -10.23503 -10.23455  -1.10280  -1.09282
 Alpha  occ. eigenvalues --   -1.05600  -1.04543  -1.03840  -1.03536  -1.02895
 Alpha  occ. eigenvalues --   -1.02077  -1.01597  -1.00760  -0.99419  -0.81730
 Alpha  occ. eigenvalues --   -0.79911  -0.78932  -0.77769  -0.71305  -0.69523
 Alpha  occ. eigenvalues --   -0.67159  -0.65292  -0.63233  -0.62279  -0.61129
 Alpha  occ. eigenvalues --   -0.59908  -0.56272  -0.55625  -0.54960  -0.54184
 Alpha  occ. eigenvalues --   -0.53374  -0.52924  -0.52737  -0.52537  -0.51573
 Alpha  occ. eigenvalues --   -0.50895  -0.49502  -0.49008  -0.47874  -0.46485
 Alpha  occ. eigenvalues --   -0.45044  -0.44933  -0.44386  -0.43237  -0.43054
 Alpha  occ. eigenvalues --   -0.42379  -0.41612  -0.40331  -0.39979  -0.39400
 Alpha  occ. eigenvalues --   -0.38784  -0.38029  -0.37577  -0.36125  -0.35445
 Alpha  occ. eigenvalues --   -0.35266  -0.34786  -0.34300  -0.33495  -0.33343
 Alpha  occ. eigenvalues --   -0.33188  -0.31223  -0.30600  -0.30170  -0.29720
 Alpha  occ. eigenvalues --   -0.29168  -0.28541  -0.28409  -0.27445  -0.26448
 Alpha  occ. eigenvalues --   -0.25683
 Alpha virt. eigenvalues --   -0.02012  -0.01886  -0.01574  -0.00055   0.00717
 Alpha virt. eigenvalues --    0.01229   0.02095   0.02506   0.03018   0.03560
 Alpha virt. eigenvalues --    0.03700   0.04431   0.05064   0.05549   0.05758

 Mulliken atomic charges:
              1
     1  O   -0.557588
     2  C   -0.198508
     3  C    0.301550
     4  O   -0.554991
     5  H    0.334880
     6  C    0.002949
     7  O   -0.588345
     8  H    0.409770
     9  C   -0.268275
    10  O   -0.521757
    11  H    0.346090
    12  C    0.322894
    13  O   -0.262236
    14  C    0.101401
    15  O   -0.170423
    16  C    0.327352
    17  C   -0.083172
    18  O   -0.554115
    19  H    0.376302
    20  C    0.225431
    21  O   -0.534479
    22  H    0.334074
    23  C   -0.268602
    24  O   -0.562108
    25  H    0.355727
    26  C   -0.105339
    27  O   -0.244520
    28  C    0.072950
    29  O   -0.549355
    30  H    0.334801
    31  H    0.146171
    32  H    0.157732
    33  H    0.117974
    34  H    0.099434
    35  H    0.131689
    36  H    0.139333
    37  H    0.135672
    38  H    0.343020
    39  H    0.138093
    40  H    0.144367
    41  H    0.108367
    42  H    0.108522
    43  H    0.121318
    44  H    0.139223
    45  H    0.146728
 Sum of Mulliken atomic charges =   0.00000

 Dipole moment (field-independent basis, Debye):
    X=             -2.9697    Y=              0.1211    Z=              1.7308  Tot=              3.4394
 Quadrupole moment (field-independent basis, Debye-Ang):
   XX=           -118.4339   YY=           -133.5174   ZZ=           -139.2921
   XY=            -14.7021   XZ=             -1.9498   YZ=              1.7862

  Exact polarizability: 233.529  -0.001 195.282   0.522  -0.360 142.738
 Approx polarizability: 274.062  -1.466 254.186   1.590   0.000 240.391

 ******    5 imaginary frequencies (negative Signs) ******

                     1                      2                      3
                     A                      A                      A
 Frequencies --  -291.7584              -262.7074              -245.6885
 Red. masses --     1.6243                 1.7786                 1.2659
 Frc consts  --     0.0815                 0.0723                 0.0450
 IR Inten    --    21.0437                 2.4501                90.0719
 Raman Activ --     0.2092                 0.0435                 0.8776

                     4                      5                      6
                     A                      A                      A
 Frequencies --   -93.2249               -60.7371                 6.3684
 Red. masses --     2.6368                 4.6113                 3.9329
 Frc consts  --     0.0135                 0.0100                 0.0001
 IR Inten    --    24.2075                10.3713                10.3320
 Raman Activ --     0.2412                 0.1218                 0.2870

                     7                      8                      9
                     A                      A                      A
 Frequencies --    34.2967                46.1229                76.1984
 Red. masses --     2.7520                 4.7334                 5.2932
 Frc consts  --     0.0019                 0.0059                 0.0181
 IR Inten    --    35.5676                 9.2351                15.1439
 Raman Activ --     0.2725                 0.1421                 0.1093

                    10                     11                     12
                     A                      A                      A
 Frequencies --    89.2235                98.8232               134.2079
 Red. masses --     6.4470                 6.2259                 5.6269
 Frc consts  --     0.0302                 0.0358                 0.0597
 IR Inten    --     0.1464                 0.6865                 3.1820
 Raman Activ --     0.2545                 0.0703                 0.0779

                    13                     14                     15
                     A                      A                      A
 Frequencies --   165.8550               188.4850               197.9352
 Red. masses --     6.3925                 6.4005                 5.9722
 Frc consts  --     0.1036                 0.1340                 0.1379
 IR Inten    --     2.5056                 1.4702                 0.3036
 Raman Activ --     0.5378                 0.7800                 0.5162

                    16                     17                     18
                     A                      A                      A
 Frequencies --   210.5690               233.9999               271.9186
 Red. masses --     6.7018                 6.0145                 4.7524
 Frc consts  --     0.1751                 0.1940                 0.2070
 IR Inten    --     0.3040                 1.4462                18.1668
 Raman Activ --     1.4374                 0.4434                 0.6445

                    19                     20                     21
                     A                      A                      A
 Frequencies --   289.9889               292.0277               295.4857
 Red. masses --     5.1531                 4.8756                 4.6622
 Frc consts  --     0.2553                 0.2450                 0.2398
 IR Inten    --     3.0846                 1.4860                 1.3781
 Raman Activ --     0.3519                 0.3837                 0.2073

                    22                     23                     24
                     A                      A                      A
 Frequencies --   312.9810               320.2856               326.6508
 Red. masses --     5.7408                 7.0466                 5.6694
 Frc consts  --     0.3313                 0.4259                 0.3564
 IR Inten    --     8.4398                 5.2080                 2.0459
 Raman Activ --     0.3773                 3.6903                 1.4104

                    25                     26                     27
                     A                      A                      A
 Frequencies --   345.6554               365.5960               388.3848
 Red. masses --     6.7051                 4.2172                 7.3065
 Frc consts  --     0.4720                 0.3321                 0.6494
 IR Inten    --     6.2018                 2.5327                 1.0991
 Raman Activ --     2.2349                 0.4953                 3.4580

                    28                     29                     30
                     A                      A                      A
 Frequencies --   421.4847               425.2724               430.7710
 Red. masses --     5.4285                 4.7105                 4.3634
 Frc consts  --     0.5682                 0.5019                 0.4771
 IR Inten    --     9.2118                 0.8828                13.8949
 Raman Activ --     2.2153                 4.3852                 4.9289

                    31                     32                     33
                     A                      A                      A
 Frequencies --   437.0113               477.6380               493.0851
 Red. masses --     4.9900                 5.3583                 3.8118
 Frc consts  --     0.5615                 0.7202                 0.5460
 IR Inten    --     4.5171                 8.8419                11.6933
 Raman Activ --     0.6240                 3.8877                 0.6492

                    34                     35                     36
                     A                      A                      A
 Frequencies --   509.1005               547.4006               576.5135
 Red. masses --     3.7154                 3.0704                 4.1014
 Frc consts  --     0.5674                 0.5421                 0.8032
 IR Inten    --     8.0544                 9.7967                 3.3008
 Raman Activ --     2.5745                 3.2842                 1.6784

                    37                     38                     39
                     A                      A                      A
 Frequencies --   591.2579               614.7337               625.8961
 Red. masses --     3.0996                 6.3531                 4.9986
 Frc consts  --     0.6384                 1.4145                 1.1537
 IR Inten    --    39.1303                10.8539                31.9822
 Raman Activ --     0.2853                 0.5505                 1.0526

                    40                     41                     42
                     A                      A                      A
 Frequencies --   649.7840               661.5040               691.2250
 Red. masses --     2.6393                 1.3593                 4.6296
 Frc consts  --     0.6566                 0.3505                 1.3033
 IR Inten    --    30.3149                95.6983                 8.5576
 Raman Activ --     0.5745                 1.2816                 2.3449

                    43                     44                     45
                     A                      A                      A
 Frequencies --   749.4788               749.8022               780.4926
 Red. masses --     1.0698                 1.0902                 1.0928
 Frc consts  --     0.3540                 0.3611                 0.3922
 IR Inten    --    45.1109               149.1181               102.4707
 Raman Activ --     1.2762                 2.1393                 1.9196

                    46                     47                     48
                     A                      A                      A
 Frequencies --   812.3389               845.0424               851.9852
 Red. masses --     1.0795                 1.7390                 1.2844
 Frc consts  --     0.4197                 0.7317                 0.5493
 IR Inten    --   136.0215                 4.6067                54.1198
 Raman Activ --     2.3415                 1.5677                 0.4330

                    49                     50                     51
                     A                      A                      A
 Frequencies --   877.1407               941.3640               961.4408
 Red. masses --     1.3831                 6.1411                 5.9488
 Frc consts  --     0.6270                 3.2064                 3.2399
 IR Inten    --    26.1374               184.6040               105.5276
 Raman Activ --     0.6573                 3.2288                 1.1695

                    52                     53                     54
                     A                      A                      A
 Frequencies --   983.0222               985.4488               991.5619
 Red. masses --     4.7756                 5.1771                 6.5602
 Frc consts  --     2.7190                 2.9621                 3.8002
 IR Inten    --     4.0697               225.8833                 9.5439
 Raman Activ --     1.2249                 2.6596                 1.8634

                    55                     56                     57
                     A                      A                      A
 Frequencies --  1009.0238              1011.3758              1019.3895
 Red. masses --     6.9731                 7.0183                 5.7399
 Frc consts  --     4.1829                 4.2297                 3.5142
 IR Inten    --   420.9512                11.8246               150.8415
 Raman Activ --     1.2228                 1.0851                 3.6152

                    58                     59                     60
                     A                      A                      A
 Frequencies --  1037.0161              1054.8196              1059.1065
 Red. masses --     6.9631                 3.5853                 4.8973
 Frc consts  --     4.4119                 2.3503                 3.2366
 IR Inten    --   228.0905                64.9600                61.2586
 Raman Activ --     3.2189                 5.2363                 3.3687

                    61                     62                     63
                     A                      A                      A
 Frequencies --  1066.9333              1072.6380              1075.1164
 Red. masses --     4.1603                 4.5343                 4.1754
 Frc consts  --     2.7903                 3.0737                 2.8435
 IR Inten    --    19.1039                 2.7112                33.2394
 Raman Activ --     4.7870                 1.4568                23.1047

                    64                     65                     66
                     A                      A                      A
 Frequencies --  1088.2179              1096.7991              1106.9194
 Red. masses --     2.5045                 4.1470                 1.9544
 Frc consts  --     1.7474                 2.9393                 1.4109
 IR Inten    --    18.1173                75.5820                11.2420
 Raman Activ --     5.2202                 4.7136                 6.4967

                    67                     68                     69
                     A                      A                      A
 Frequencies --  1108.7071              1120.3360              1124.4250
 Red. masses --     2.1450                 2.8911                 2.7999
 Frc consts  --     1.5535                 2.1380                 2.0857
 IR Inten    --    91.0281                21.7109                16.7997
 Raman Activ --     3.0456                 3.5882                15.1152

                    70                     71                     72
                     A                      A                      A
 Frequencies --  1133.5254              1154.8533              1159.2680
 Red. masses --     3.2588                 1.8819                 1.6519
 Frc consts  --     2.4670                 1.4788                 1.3080
 IR Inten    --    11.2470                12.3896                 4.5907
 Raman Activ --     3.6220                 3.9136                 2.0116

                    73                     74                     75
                     A                      A                      A
 Frequencies --  1168.5831              1172.5886              1194.0753
 Red. masses --     1.4947                 1.9468                 1.9486
 Frc consts  --     1.2026                 1.5771                 1.6370
 IR Inten    --     8.7578                11.9253                 2.6434
 Raman Activ --     0.9845                 4.3615                 2.0318

                    76                     77                     78
                     A                      A                      A
 Frequencies --  1206.1538              1207.5984              1214.4210
 Red. masses --     1.3056                 1.2291                 1.4157
 Frc consts  --     1.1191                 1.0560                 1.2301
 IR Inten    --     9.1892                21.8612                 7.2981
 Raman Activ --     2.2998                 3.0757                 0.8676

                    79                     80                     81
                     A                      A                      A
 Frequencies --  1233.3470              1238.7039              1253.8335
 Red. masses --     1.2817                 1.2013                 1.2360
 Frc consts  --     1.1487                 1.0861                 1.1449
 IR Inten    --     1.8832                 3.6006                12.2463
 Raman Activ --     1.0769                 1.0256                 1.2585

                    82                     83                     84
                     A                      A                      A
 Frequencies --  1264.9641              1286.5509              1287.7148
 Red. masses --     1.2811                 1.3217                 1.3161
 Frc consts  --     1.2078                 1.2889                 1.2858
 IR Inten    --    11.3007                59.6128                32.2614
 Raman Activ --     6.8917                 3.3440                 3.2539

                    85                     86                     87
                     A                      A                      A
 Frequencies --  1292.0130              1295.1401              1307.1088
 Red. masses --     1.3669                 1.2945                 1.3981
 Frc consts  --     1.3444                 1.2793                 1.4074
 IR Inten    --     8.0597                 6.0793                26.0149
 Raman Activ --     1.0229                 3.6611                 3.6408

                    88                     89                     90
                     A                      A                      A
 Frequencies --  1314.0928              1315.8471              1327.8104
 Red. masses --     1.2921                 1.2184                 1.4361
 Frc consts  --     1.3146                 1.2429                 1.4918
 IR Inten    --     4.8702                 2.9109                 1.5556
 Raman Activ --     2.5753                 4.8848                 3.9810

                    91                     92                     93
                     A                      A                      A
 Frequencies --  1338.1027              1344.3520              1346.7959
 Red. masses --     1.3344                 1.3505                 1.1653
 Frc consts  --     1.4077                 1.4380                 1.2453
 IR Inten    --    22.5661                33.9347                33.1975
 Raman Activ --     4.1417                 2.1911                 4.9245

                    94                     95                     96
                     A                      A                      A
 Frequencies --  1357.2788              1370.3961              1376.3370
 Red. masses --     1.2674                 1.4155                 1.6429
 Frc consts  --     1.3756                 1.5662                 1.8336
 IR Inten    --    50.9607                 3.3339                21.4943
 Raman Activ --     4.2605                 6.0456                 6.1571

                    97                     98                     99
                     A                      A                      A
 Frequencies --  1388.4561              1417.7923              1427.3341
 Red. masses --     1.4807                 1.2193                 1.2550
 Frc consts  --     1.6818                 1.4440                 1.5065
 IR Inten    --    10.3359                 9.7700                 1.8553
 Raman Activ --     5.8542                 3.3501                11.5707

                   100                    101                    102
                     A                      A                      A
 Frequencies --  1430.2781              1442.1113              1444.4234
 Red. masses --     1.3530                 1.3713                 1.3646
 Frc consts  --     1.6307                 1.6803                 1.6775
 IR Inten    --    42.0209                37.9303                 5.8564
 Raman Activ --     1.1502                 3.6207                 1.8684

                   103                    104                    105
                     A                      A                      A
 Frequencies --  1462.5364              1467.8478              1474.1105
 Red. masses --     1.3680                 1.1000                 1.0884
 Frc consts  --     1.7240                 1.3963                 1.3935
 IR Inten    --    30.5299                 4.5190                 1.2545
 Raman Activ --     1.1365                 3.1614                 4.2325

                   106                    107                    108
                     A                      A                      A
 Frequencies --  1496.3091              1507.6151              3255.9388
 Red. masses --     1.3185                 1.2894                 1.0584
 Frc consts  --     1.7393                 1.7267                 6.6107
 IR Inten    --    29.6095                31.9932                27.5953
 Raman Activ --     1.6713                 0.8449                57.6428

                   109                    110                    111
                     A                      A                      A
 Frequencies --  3258.2785              3262.3664              3262.6664
 Red. masses --     1.0607                 1.0802                 1.0806
 Frc consts  --     6.6348                 6.7733                 6.7771
 IR Inten    --   177.8050                10.3328                 2.2413
 Raman Activ --    52.7756                95.7039                89.5652

                   112                    113                    114
                     A                      A                      A
 Frequencies --  3272.6151              3273.7162              3276.7898
 Red. masses --     1.0831                 1.0836                 1.0692
 Frc consts  --     6.8346                 6.8423                 6.7639
 IR Inten    --    35.7914                18.3518               378.7376
 Raman Activ --    37.1249                29.3094               334.1852

                   115                    116                    117
                     A                      A                      A
 Frequencies --  3285.0480              3287.7113              3287.9759
 Red. masses --     1.0847                 1.0856                 1.0857
 Frc consts  --     6.8968                 6.9135                 6.9152
 IR Inten    --    69.1955                34.6347                 5.0307
 Raman Activ --    23.1624                39.4610               158.3746

                   118                    119                    120
                     A                      A                      A
 Frequencies --  3295.6931              3304.2206              3306.2549
 Red. masses --     1.0729                 1.0855                 1.0851
 Frc consts  --     6.8661                 6.9827                 6.9887
 IR Inten    --   525.3193                90.6947                95.8185
 Raman Activ --    48.6621                23.9678                76.1189

                   121                    122                    123
                     A                      A                      A
 Frequencies --  3309.2679              3313.2794              3315.7249
 Red. masses --     1.1022                 1.0900                 1.1036
 Frc consts  --     7.1115                 7.0501                 7.1484
 IR Inten    --    27.2341                72.7802                73.2307
 Raman Activ --    27.8438                30.1489                32.0642

                   124                    125                    126
                     A                      A                      A
 Frequencies --  3363.0687              3363.2133              3366.4534
 Red. masses --     1.0694                 1.0654                 1.0666
 Frc consts  --     7.1264                 7.1005                 7.1219
 IR Inten    --    36.2601                23.5312                50.8957
 Raman Activ --   163.1612               163.3962               144.0344

                   127                    128                    129
                     A                      A                      A
 Frequencies --  3366.7839              3885.2059              3891.0059
 Red. masses --     1.0657                 1.0679                 1.0674
 Frc consts  --     7.1171                 9.4974                 9.5216
 IR Inten    --    27.0386                75.2728                79.3589
 Raman Activ --   132.8324                77.1777               121.6059

 - Thermochemistry -
 -------------------
 Temperature   298.150 Kelvin.  Pressure   1.00000 Atm.
 Atom     1 has atomic number  8 and mass  15.99491

 Molecular mass:   342.11621 amu.
 Principal axes and moments of inertia in atomic units:
                           1         2         3
     Eigenvalues --  4265.23116********************
           X            0.99997  -0.00724  -0.00043
           Y            0.00724   0.99997  -0.00130
           Z            0.00044   0.00130   1.00000
 This molecule is an asymmetric top.
 Rotational symmetry number  1.
 Warning -- assumption of classical behavior for rotation
           may cause significant error
 Rotational temperatures (Kelvin)      0.02031     0.00706     0.00537
 Rotational constants (GHZ):           0.42313     0.14701     0.11189
    5 imaginary frequencies ignored.
 Zero-point vibrational energy     977033.4 (Joules/Mol)
                                  233.51658 (Kcal/Mol)
 Warning -- explicit consideration of  33 degrees of freedom as
           vibrations may cause significant error
 Vibrational temperatures:      9.16    49.35    66.36   109.63   128.37
          (Kelvin)            142.18   193.10   238.63   271.19   284.78
                              302.96   336.67   391.23   417.23   420.16
                              425.14   450.31   460.82   469.98   497.32
                              526.01   558.80   606.42   611.87   619.78
                              628.76   687.21   709.44   732.48   787.59
                              829.47   850.69   884.46   900.52   934.89
                              951.76   994.52  1078.33  1078.80  1122.95
                             1168.77  1215.83  1225.82  1262.01  1354.41
                             1383.30  1414.35  1417.84  1426.63  1451.76
                             1455.14  1466.67  1492.03  1517.65  1523.82
                             1535.08  1543.28  1546.85  1565.70  1578.05
                             1592.61  1595.18  1611.91  1617.79  1630.89
                             1661.57  1667.93  1681.33  1687.09  1718.01
                             1735.38  1737.46  1747.28  1774.51  1782.22
                             1803.98  1820.00  1851.06  1852.73  1858.92
                             1863.42  1880.64  1890.68  1893.21  1910.42
                             1925.23  1934.22  1937.74  1952.82  1971.69
                             1980.24  1997.68  2039.88  2053.61  2057.85
                             2074.87  2078.20  2104.26  2111.90  2120.91
                             2152.85  2169.12  4684.56  4687.93  4693.81
                             4694.24  4708.56  4710.14  4714.56  4726.45
                             4730.28  4730.66  4741.76  4754.03  4756.96
                             4761.29  4767.06  4770.58  4838.70  4838.91
                             4843.57  4844.05  5589.94  5598.28

 Zero-point correction=                           0.372132 (Hartree/Particle)
 Thermal correction to Energy=                    0.391951
 Thermal correction to Enthalpy=                  0.392895
 Thermal correction to Gibbs Free Energy=         0.322183
 Sum of electronic and zero-point Energies=          -1297.616595
 Sum of electronic and thermal Energies=             -1297.596777
 Sum of electronic and thermal Enthalpies=           -1297.595833
 Sum of electronic and thermal Free Energies=        -1297.666544

                     E (Thermal)             CV                S
                      KCal/Mol        Cal/Mol-Kelvin    Cal/Mol-Kelvin
 Total                  245.953             79.288            148.825
 Electronic               0.000              0.000              0.000
 Translational            0.889              2.981             43.384
 Rotational               0.889              2.981             35.089
 Vibrational            244.175             73.326             70.351
 Vibration     1          0.593              1.987              8.908
 Vibration     2          0.594              1.983              5.564
 Vibration     3          0.595              1.979              4.977
 Vibration     4          0.599              1.965              3.986
 Vibration     5          0.602              1.957              3.677
 Vibration     6          0.604              1.950              3.477
 Vibration     7          0.613              1.919              2.885
 Vibration     8          0.624              1.884              2.482
 Vibration     9          0.633              1.856              2.243
 Vibration    10          0.637              1.843              2.152
 Vibration    11          0.643              1.825              2.039
 Vibration    12          0.654              1.789              1.848
 Vibration    13          0.675              1.725              1.584
 Vibration    14          0.686              1.692              1.474
 Vibration    15          0.687              1.689              1.462
 Vibration    16          0.690              1.682              1.442
 Vibration    17          0.701              1.649              1.347
 Vibration    18          0.706              1.635              1.309
 Vibration    19          0.710              1.622              1.277
 Vibration    20          0.724              1.584              1.186
 Vibration    21          0.739              1.543              1.098
 Vibration    22          0.757              1.495              1.006
 Vibration    23          0.784              1.424              0.887
 Vibration    24          0.787              1.415              0.874
 Vibration    25          0.792              1.403              0.856
 Vibration    26          0.797              1.390              0.836
 Vibration    27          0.834              1.300              0.716
 Vibration    28          0.849              1.265              0.676
 Vibration    29          0.864              1.230              0.636
 Vibration    30          0.903              1.145              0.550
 Vibration    31          0.933              1.082              0.492
 Vibration    32          0.949              1.050              0.465
 Vibration    33          0.974              1.001              0.425

 Normal termination of Gaussian 09 at Sun Mar 27 04:12:03 2016.
