 Gaussian 09, Revision B.01,
 Gaussian 09:  EM64L-G09RevB.01 12-Aug-2010

 --------------------------------------------------
 # freq=raman b3lyp/6-31+g(2df,p) geom=connectivity
 --------------------------------------------------

 ------------
 400 9000.com
 ------------
 Symbolic Z-matrix:
 Charge =  0 Multiplicity = 1

                         Standard orientation:
 ---------------------------------------------------------------------
 Center     Atomic      Atomic             Coordinates (Angstroms)
 Number     Number       Type             X           Y           Z
 ---------------------------------------------------------------------
      1          8           0       -5.088017   -0.293359    0.248669
      2          6           0       -3.743780   -0.059263   -0.195824
      3          6           0       -3.222931    1.308998    0.214352
      4          8           0       -3.857996    2.363973   -0.522022
      5          1           0       -4.796447    2.056675   -0.680208
      6          6           0       -1.741180    1.535087   -0.038287
      7          8           0       -1.238678    2.747509    0.540467
      8          1           0       -0.283671    2.699858    0.246455
      9          6           0       -3.118021   -2.506362   -0.009664
     10          8           0       -4.435077   -3.060379    0.121447
     11          1           0       -4.353644   -4.049906    0.235926
     12          6           0       -2.766006   -1.076872    0.368635
     13          8           0       -1.398017   -0.883741   -0.019967
     14          6           0       -0.889473    0.374534    0.447495
     15          8           0        0.272724    0.452921   -0.391818
     16          6           0        1.609127    0.215997    0.072360
     17          6           0        1.935158   -1.190666   -0.403487
     18          8           0        0.949500   -2.231704   -0.346701
     19          1           0        0.024275   -1.859924   -0.421957
     20          6           0        3.257079   -1.599593    0.226872
     21          8           0        3.721341   -2.846517   -0.310213
     22          1           0        4.535571   -3.177194    0.166886
     23          6           0        2.394732    2.629080    0.017056
     24          8           0        1.177710    3.366602   -0.165889
     25          1           0        1.290243    4.360159   -0.154979
     26          6           0        2.644023    1.202356   -0.443511
     27          8           0        3.915393    0.821685    0.103366
     28          6           0        4.317193   -0.547676   -0.053886
     29          8           0        5.551104   -0.595999    0.676820
     30          1           0        6.288058   -0.531399    0.064998
     31          1           0        4.576970   -0.667292   -1.084957
     32          1           0        3.128224   -1.697171    1.284593
     33          1           0        2.146078   -1.080764   -1.446720
     34          1           0        1.614872    0.232873    1.142211
     35          1           0        2.681827    1.165643   -1.512213
     36          1           0        3.164408    3.219871   -0.434013
     37          1           0        2.582289    2.632484    1.070484
     38          1           0       -5.676899   -0.312611   -0.509254
     39          1           0       -2.468091   -3.137184    0.560033
     40          1           0       -2.843882   -2.621880   -1.037479
     41          1           0       -2.810727   -1.004935    1.435277
     42          1           0       -3.723822   -0.124510   -1.263646
     43          1           0       -3.418892    1.451063    1.256618
     44          1           0       -1.607459    1.608058   -1.097388
     45          1           0       -0.664693    0.396439    1.493389
 ---------------------------------------------------------------------

 SCF Done:  E(RB3LYP) =  -1297.99367382     A.U. after   13 cycles

 The electronic state is 1-A.
 Alpha  occ. eigenvalues --  -19.18986 -19.18693 -19.17788 -19.17757 -19.17287
 Alpha  occ. eigenvalues --  -19.17037 -19.16037 -19.16012 -19.15119 -19.13683
 Alpha  occ. eigenvalues --  -19.13071 -10.30534 -10.30361 -10.26689 -10.25715
 Alpha  occ. eigenvalues --  -10.25629 -10.25435 -10.25260 -10.25134 -10.24124
 Alpha  occ. eigenvalues --  -10.23834 -10.23657 -10.23384  -1.10273  -1.08832
 Alpha  occ. eigenvalues --   -1.05323  -1.05057  -1.03730  -1.03023  -1.02560
 Alpha  occ. eigenvalues --   -1.02250  -1.02056  -1.00201  -0.99683  -0.82559
 Alpha  occ. eigenvalues --   -0.80284  -0.79770  -0.77876  -0.72090  -0.69751
 Alpha  occ. eigenvalues --   -0.67364  -0.64745  -0.63428  -0.62427  -0.61204
 Alpha  occ. eigenvalues --   -0.60008  -0.56135  -0.55917  -0.55626  -0.54476
 Alpha  occ. eigenvalues --   -0.53765  -0.53408  -0.52780  -0.51603  -0.51342
 Alpha  occ. eigenvalues --   -0.50854  -0.49746  -0.49257  -0.48605  -0.46864
 Alpha  occ. eigenvalues --   -0.46047  -0.44997  -0.44128  -0.43513  -0.43068
 Alpha  occ. eigenvalues --   -0.42363  -0.41666  -0.40800  -0.40583  -0.39282
 Alpha  occ. eigenvalues --   -0.38264  -0.37174  -0.36858  -0.36051  -0.35926
 Alpha  occ. eigenvalues --   -0.34995  -0.34556  -0.34241  -0.33592  -0.33535
 Alpha  occ. eigenvalues --   -0.32951  -0.31500  -0.30899  -0.30292  -0.29769
 Alpha  occ. eigenvalues --   -0.29009  -0.28455  -0.28072  -0.27507  -0.26606
 Alpha  occ. eigenvalues --   -0.26173
 Alpha virt. eigenvalues --   -0.02155  -0.01999  -0.01551  -0.00550   0.00247
 Alpha virt. eigenvalues --    0.01079   0.01838   0.02529   0.02839   0.03232
 Alpha virt. eigenvalues --    0.03885   0.04488   0.04631   0.05112   0.05761

 Mulliken atomic charges:
              1
     1  O   -0.420774
     2  C   -0.310766
     3  C    0.064112
     4  O   -0.461163
     5  H    0.324850
     6  C    0.117958
     7  O   -0.480784
     8  H    0.439669
     9  C   -0.349496
    10  O   -0.452107
    11  H    0.350719
    12  C    0.161633
    13  O    0.004649
    14  C   -0.255822
    15  O   -0.067155
    16  C   -0.071321
    17  C    0.059784
    18  O   -0.489602
    19  H    0.424784
    20  C   -0.000664
    21  O   -0.440144
    22  H    0.345428
    23  C   -0.406689
    24  O   -0.509636
    25  H    0.379810
    26  C   -0.032069
    27  O   -0.024048
    28  C   -0.056872
    29  O   -0.451308
    30  H    0.346941
    31  H    0.121395
    32  H    0.131311
    33  H    0.111588
    34  H    0.119613
    35  H    0.132657
    36  H    0.150135
    37  H    0.164300
    38  H    0.351071
    39  H    0.147226
    40  H    0.150614
    41  H    0.117607
    42  H    0.134295
    43  H    0.136841
    44  H    0.144889
    45  H    0.146541
 Sum of Mulliken atomic charges =   0.00000

 Dipole moment (field-independent basis, Debye):
    X=              2.3256    Y=              0.1144    Z=             -1.1622  Tot=              2.6024
 Quadrupole moment (field-independent basis, Debye-Ang):
   XX=           -121.0802   YY=           -136.2589   ZZ=           -137.4757
   XY=             15.1185   XZ=              1.6303   YZ=             -5.7110

  Exact polarizability: 235.201  -0.329 198.734   2.231  -0.244 144.130
 Approx polarizability: 276.601   0.761 259.122   2.942   0.502 239.052

 ******    8 imaginary frequencies (negative Signs) ******

                     1                      2                      3
                     A                      A                      A
 Frequencies --  -319.6996              -315.5180              -244.6556
 Red. masses --     1.7003                 1.6730                 1.2047
 Frc consts  --     0.1024                 0.0981                 0.0425
 IR Inten    --     2.6252                 4.2593               100.6504
 Raman Activ --     0.0305                 0.0588                 0.8560

                     4                      5                      6
                     A                      A                      A
 Frequencies --  -155.8981               -73.9231               -40.4986
 Red. masses --     1.2070                 6.3675                 6.7426
 Frc consts  --     0.0173                 0.0205                 0.0065
 IR Inten    --    87.8133                 0.5224                 0.8841
 Raman Activ --     1.1400                 0.0420                 0.0722

                     7                      8                      9
                     A                      A                      A
 Frequencies --   -30.9724               -21.1953                30.3671
 Red. masses --     6.6111                 6.0186                 6.7414
 Frc consts  --     0.0037                 0.0016                 0.0037
 IR Inten    --     0.3336                 1.3295                 0.7763
 Raman Activ --     0.0142                 0.0440                 0.0644

                    10                     11                     12
                     A                      A                      A
 Frequencies --    61.9645                87.3104                94.5697
 Red. masses --     6.6354                 6.4821                 6.3651
 Frc consts  --     0.0150                 0.0291                 0.0335
 IR Inten    --     1.0585                 0.5454                 3.3879
 Raman Activ --     0.1038                 0.2903                 0.0775

                    13                     14                     15
                     A                      A                      A
 Frequencies --   150.2544               172.2184               187.0394
 Red. masses --     6.1893                 6.4244                 7.0437
 Frc consts  --     0.0823                 0.1123                 0.1452
 IR Inten    --     5.2372                 1.7121                 0.1095
 Raman Activ --     0.2088                 0.5644                 0.3691

                    16                     17                     18
                     A                      A                      A
 Frequencies --   216.4968               236.9930               268.1354
 Red. masses --     7.4788                 6.0067                 4.3991
 Frc consts  --     0.2065                 0.1988                 0.1863
 IR Inten    --     0.4301                 1.8020                 8.7735
 Raman Activ --     3.1564                 0.3491                 0.6900

                    19                     20                     21
                     A                      A                      A
 Frequencies --   270.3970               281.2726               305.5354
 Red. masses --     4.8849                 4.4102                 6.3798
 Frc consts  --     0.2104                 0.2056                 0.3509
 IR Inten    --     6.6742                 0.2875                 7.0657
 Raman Activ --     0.1920                 0.5645                 2.6481

                    22                     23                     24
                     A                      A                      A
 Frequencies --   305.9550               315.4345               319.3826
 Red. masses --     4.8873                 5.4260                 5.5160
 Frc consts  --     0.2695                 0.3181                 0.3315
 IR Inten    --     2.2368                 3.6597                11.5995
 Raman Activ --     1.1806                 2.2837                 2.1486

                    25                     26                     27
                     A                      A                      A
 Frequencies --   347.9669               363.2555               375.9213
 Red. masses --     6.4222                 5.8084                 5.2435
 Frc consts  --     0.4581                 0.4516                 0.4366
 IR Inten    --     6.1714                 0.7967                 1.3291
 Raman Activ --     0.3488                 2.9734                 1.0401

                    28                     29                     30
                     A                      A                      A
 Frequencies --   398.7930               412.8664               426.4801
 Red. masses --     4.1479                 6.6885                 5.7662
 Frc consts  --     0.3887                 0.6717                 0.6179
 IR Inten    --    13.2368                 0.6949                 0.8674
 Raman Activ --     2.6767                 5.6766                 2.9829

                    31                     32                     33
                     A                      A                      A
 Frequencies --   432.6481               468.1266               476.1055
 Red. masses --     4.9654                 3.9211                 4.3990
 Frc consts  --     0.5476                 0.5063                 0.5875
 IR Inten    --     7.6035                15.9754                 8.9229
 Raman Activ --     0.2270                 2.5880                 1.7932

                    34                     35                     36
                     A                      A                      A
 Frequencies --   490.2278               523.9796               563.2838
 Red. masses --     4.0814                 3.1891                 3.9831
 Frc consts  --     0.5779                 0.5159                 0.7446
 IR Inten    --     4.1538                 9.9596                18.2075
 Raman Activ --     2.9470                 3.5379                 3.4369

                    37                     38                     39
                     A                      A                      A
 Frequencies --   582.4289               597.0804               611.6355
 Red. masses --     2.8391                 6.2601                 6.2162
 Frc consts  --     0.5674                 1.3149                 1.3701
 IR Inten    --    28.3237                 4.7644                19.2268
 Raman Activ --     0.7460                 0.4507                 1.5638

                    40                     41                     42
                     A                      A                      A
 Frequencies --   635.7126               640.4525               682.4661
 Red. masses --     2.4031                 1.2912                 1.1444
 Frc consts  --     0.5722                 0.3120                 0.3140
 IR Inten    --    23.9615               104.0885               104.2476
 Raman Activ --     1.1750                 1.4758                 1.4592

                    43                     44                     45
                     A                      A                      A
 Frequencies --   693.2650               714.0429               731.8878
 Red. masses --     3.8713                 1.0748                 1.0859
 Frc consts  --     1.0962                 0.3229                 0.3427
 IR Inten    --     4.9080               103.1759                79.8069
 Raman Activ --     1.9108                 2.3277                 1.2105

                    46                     47                     48
                     A                      A                      A
 Frequencies --   746.3982               841.5933               846.7168
 Red. masses --     1.0675                 1.7623                 1.6657
 Frc consts  --     0.3504                 0.7354                 0.7036
 IR Inten    --   100.0626                 7.6587                 8.9078
 Raman Activ --     1.7357                 1.2642                 0.3068

                    49                     50                     51
                     A                      A                      A
 Frequencies --   886.4581               910.5770               935.0275
 Red. masses --     1.2271                 4.4057                 6.3575
 Frc consts  --     0.5681                 2.1523                 3.2748
 IR Inten    --   102.6173                69.0126               104.1782
 Raman Activ --     0.4270                 2.5035                 0.7907

                    52                     53                     54
                     A                      A                      A
 Frequencies --   961.4399               978.8011               988.0863
 Red. masses --     5.7669                 5.8221                 5.7025
 Frc consts  --     3.1408                 3.2864                 3.2802
 IR Inten    --    70.7401                15.3904               240.3254
 Raman Activ --     3.6318                 1.8177                 1.0712

                    55                     56                     57
                     A                      A                      A
 Frequencies --  1003.2987              1015.3191              1018.3133
 Red. masses --     4.9586                 6.2825                 6.3289
 Frc consts  --     2.9408                 3.8158                 3.8667
 IR Inten    --   218.1598                73.8088                75.2436
 Raman Activ --     1.9929                 4.5232                 2.5663

                    58                     59                     60
                     A                      A                      A
 Frequencies --  1033.9144              1049.1570              1065.8843
 Red. masses --     5.2090                 3.9580                 3.2945
 Frc consts  --     3.2807                 2.5669                 2.2053
 IR Inten    --   434.1572                56.8872                 8.3728
 Raman Activ --     2.4598                 2.9933                 3.1833

                    61                     62                     63
                     A                      A                      A
 Frequencies --  1069.4964              1073.7424              1075.6064
 Red. masses --     6.2369                 4.1605                 4.5632
 Frc consts  --     4.2032                 2.8262                 3.1105
 IR Inten    --   137.1071                 2.4335                11.6373
 Raman Activ --     6.7938                 9.0304                13.3084

                    64                     65                     66
                     A                      A                      A
 Frequencies --  1098.5059              1105.7221              1113.6102
 Red. masses --     2.5108                 2.2158                 2.2547
 Frc consts  --     1.7851                 1.5961                 1.6475
 IR Inten    --    25.3574               108.1996                22.1141
 Raman Activ --     5.6819                 5.2424                 2.5500

                    67                     68                     69
                     A                      A                      A
 Frequencies --  1117.9719              1125.2362              1133.5956
 Red. masses --     3.1305                 2.6039                 2.8865
 Frc consts  --     2.3053                 1.9425                 2.1854
 IR Inten    --    34.4603                16.9904                39.0315
 Raman Activ --    14.2191                 9.4857                 4.5131

                    70                     71                     72
                     A                      A                      A
 Frequencies --  1143.6146              1149.4762              1160.0094
 Red. masses --     2.9574                 2.4290                 2.0420
 Frc consts  --     2.2788                 1.8909                 1.6189
 IR Inten    --    25.0758                22.8023                32.3120
 Raman Activ --     3.4773                 1.5931                 6.8268

                    73                     74                     75
                     A                      A                      A
 Frequencies --  1169.0618              1171.1486              1188.3622
 Red. masses --     1.9762                 2.1823                 1.6052
 Frc consts  --     1.5913                 1.7635                 1.3356
 IR Inten    --    28.9899                11.0423                11.5070
 Raman Activ --     1.7092                 1.3258                 1.4749

                    76                     77                     78
                     A                      A                      A
 Frequencies --  1202.8488              1209.8016              1222.4036
 Red. masses --     1.2389                 1.2665                 1.2924
 Frc consts  --     1.0561                 1.0922                 1.1379
 IR Inten    --    24.5778                 2.5086                13.2461
 Raman Activ --     2.4606                 0.7334                 0.5429

                    79                     80                     81
                     A                      A                      A
 Frequencies --  1237.7245              1248.3825              1253.8790
 Red. masses --     1.4970                 1.2528                 1.2591
 Frc consts  --     1.3512                 1.1503                 1.1663
 IR Inten    --    10.1216                 6.2028                13.3256
 Raman Activ --     1.6706                 2.2415                 0.7674

                    82                     83                     84
                     A                      A                      A
 Frequencies --  1262.0100              1285.0047              1288.5227
 Red. masses --     1.3271                 1.3146                 1.2121
 Frc consts  --     1.2453                 1.2789                 1.1857
 IR Inten    --    11.9370                60.3599                24.1509
 Raman Activ --     1.9925                 3.9933                 4.5121

                    85                     86                     87
                     A                      A                      A
 Frequencies --  1291.1141              1296.1986              1302.1271
 Red. masses --     1.2686                 1.3805                 1.3816
 Frc consts  --     1.2460                 1.3666                 1.3802
 IR Inten    --     6.6062                10.8142                40.3549
 Raman Activ --     1.9051                 1.1656                 0.9816

                    88                     89                     90
                     A                      A                      A
 Frequencies --  1317.1149              1320.3934              1322.6587
 Red. masses --     1.3268                 1.2043                 1.1431
 Frc consts  --     1.3562                 1.2370                 1.1782
 IR Inten    --    16.6467                16.2142                 5.9152
 Raman Activ --     9.7454                 3.3609                12.5241

                    91                     92                     93
                     A                      A                      A
 Frequencies --  1331.9219              1342.2173              1347.0892
 Red. masses --     1.2879                 1.3348                 1.1363
 Frc consts  --     1.3461                 1.4168                 1.2148
 IR Inten    --    19.1341                28.9782                30.9040
 Raman Activ --     2.1810                 4.4109                 4.7902

                    94                     95                     96
                     A                      A                      A
 Frequencies --  1348.7146              1362.6631              1377.2423
 Red. masses --     1.2476                 1.4003                 1.7337
 Frc consts  --     1.3371                 1.5320                 1.9375
 IR Inten    --     2.1281                 9.8531                11.8297
 Raman Activ --    10.2322                 3.7853                 3.0874

                    97                     98                     99
                     A                      A                      A
 Frequencies --  1382.9000              1398.7215              1401.2240
 Red. masses --     1.1315                 1.4829                 1.2990
 Frc consts  --     1.2749                 1.7093                 1.5028
 IR Inten    --     6.6144                 9.5577                 5.5226
 Raman Activ --     4.0576                 4.6094                 3.9366

                   100                    101                    102
                     A                      A                      A
 Frequencies --  1417.5459              1440.3914              1450.1780
 Red. masses --     1.4614                 1.3336                 1.3439
 Frc consts  --     1.7302                 1.6302                 1.6652
 IR Inten    --    19.0272                 4.1373                59.8382
 Raman Activ --     3.5459                 0.7611                 1.8099

                   103                    104                    105
                     A                      A                      A
 Frequencies --  1456.4311              1463.7733              1465.4102
 Red. masses --     1.2020                 1.0975                 1.3133
 Frc consts  --     1.5022                 1.3855                 1.6616
 IR Inten    --    17.5223                 2.4600                32.1068
 Raman Activ --     6.2432                 3.6656                 1.3348

                   106                    107                    108
                     A                      A                      A
 Frequencies --  1467.6582              1522.5640              3242.4423
 Red. masses --     1.2435                 1.2813                 1.0665
 Frc consts  --     1.5781                 1.7501                 6.6061
 IR Inten    --    12.1144                96.3414               553.8225
 Raman Activ --     1.0598                 1.6849               146.4559

                   109                    110                    111
                     A                      A                      A
 Frequencies --  3250.5527              3252.0516              3260.9034
 Red. masses --     1.0788                 1.0581                 1.0603
 Frc consts  --     6.7159                 6.5932                 6.6426
 IR Inten    --   236.9775                31.1775                16.9336
 Raman Activ --    39.4082                67.8488               179.9474

                   112                    113                    114
                     A                      A                      A
 Frequencies --  3263.2919              3263.6716              3271.3720
 Red. masses --     1.0822                 1.0823                 1.0823
 Frc consts  --     6.7900                 6.7923                 6.8241
 IR Inten    --    49.1145                 3.1130                 5.5245
 Raman Activ --    15.9401               175.0950               123.4404

                   115                    116                    117
                     A                      A                      A
 Frequencies --  3273.6920              3280.4379              3281.3604
 Red. masses --     1.0821                 1.0858                 1.0845
 Frc consts  --     6.8325                 6.8842                 6.8797
 IR Inten    --     7.5700                 3.4164                 7.8665
 Raman Activ --   113.8584                29.7045                21.2377

                   118                    119                    120
                     A                      A                      A
 Frequencies --  3289.1521              3291.6194              3294.0237
 Red. masses --     1.0761                 1.0870                 1.0809
 Frc consts  --     6.8590                 6.9388                 6.9101
 IR Inten    --   482.8605                75.4972               295.3398
 Raman Activ --    57.5982                 8.2380                54.6471

                   121                    122                    123
                     A                      A                      A
 Frequencies --  3303.1516              3306.9751              3310.4051
 Red. masses --     1.0998                 1.0890                 1.1024
 Frc consts  --     7.0697                 7.0166                 7.1178
 IR Inten    --    23.7327                93.1640                66.4293
 Raman Activ --    32.4652                58.3106                43.9519

                   124                    125                    126
                     A                      A                      A
 Frequencies --  3349.1008              3359.0864              3363.4550
 Red. masses --     1.0655                 1.0668                 1.0683
 Frc consts  --     7.0417                 7.0923                 7.1205
 IR Inten    --    13.9264                42.8471                47.3013
 Raman Activ --   114.0369               161.9988               157.5579

                   127                    128                    129
                     A                      A                      A
 Frequencies --  3365.0445              3874.0179              3875.8237
 Red. masses --     1.0685                 1.0678                 1.0676
 Frc consts  --     7.1289                 9.4415                 9.4490
 IR Inten    --    95.7066                78.8393                85.5208
 Raman Activ --   169.4357                86.4328               114.9286

 - Thermochemistry -
 -------------------
 Temperature   298.150 Kelvin.  Pressure   1.00000 Atm.
 Atom     1 has atomic number  8 and mass  15.99491

 Molecular mass:   342.11621 amu.
 Principal axes and moments of inertia in atomic units:
                           1         2         3
     Eigenvalues --  4424.08147********************
           X            0.99997   0.00765  -0.00005
           Y           -0.00765   0.99997  -0.00143
           Z            0.00004   0.00143   1.00000
 This molecule is an asymmetric top.
 Rotational symmetry number  1.
 Warning -- assumption of classical behavior for rotation
           may cause significant error
 Rotational temperatures (Kelvin)      0.01958     0.00702     0.00529
 Rotational constants (GHZ):           0.40794     0.14637     0.11032
    8 imaginary frequencies ignored.
 Zero-point vibrational energy     970808.8 (Joules/Mol)
                                  232.02887 (Kcal/Mol)
 Warning -- explicit consideration of  31 degrees of freedom as
           vibrations may cause significant error
 Vibrational temperatures:     43.69    89.15   125.62   136.06   216.18
          (Kelvin)            247.78   269.11   311.49   340.98   385.79
                              389.04   404.69   439.60   440.20   453.84
                              459.52   500.65   522.64   540.87   573.77
                              594.02   613.61   622.48   673.53   685.01
                              705.33   753.89   810.44   837.98   859.06
                              880.01   914.65   921.47   981.92   997.45
                             1027.35  1053.02  1073.90  1210.86  1218.24
                             1275.41  1310.12  1345.29  1383.30  1408.27
                             1421.63  1443.52  1460.82  1465.12  1487.57
                             1509.50  1533.57  1538.76  1544.87  1547.56
                             1580.50  1590.89  1602.23  1608.51  1618.96
                             1630.99  1645.40  1653.84  1668.99  1682.02
                             1685.02  1709.79  1730.63  1740.63  1758.76
                             1780.81  1796.14  1804.05  1815.75  1848.83
                             1853.89  1857.62  1864.94  1873.47  1895.03
                             1899.75  1903.01  1916.34  1931.15  1938.16
                             1940.50  1960.57  1981.54  1989.68  2012.45
                             2016.05  2039.53  2072.40  2086.48  2095.48
                             2106.04  2108.40  2111.63  2190.63  4665.15
                             4676.81  4678.97  4691.71  4695.14  4695.69
                             4706.77  4710.11  4719.81  4721.14  4732.35
                             4735.90  4739.36  4752.49  4757.99  4762.93
                             4818.60  4832.97  4839.26  4841.54  5573.84
                             5576.44

 Zero-point correction=                           0.369762 (Hartree/Particle)
 Thermal correction to Energy=                    0.387536
 Thermal correction to Enthalpy=                  0.388480
 Thermal correction to Gibbs Free Energy=         0.324675
 Sum of electronic and zero-point Energies=          -1297.623912
 Sum of electronic and thermal Energies=             -1297.606138
 Sum of electronic and thermal Enthalpies=           -1297.605194
 Sum of electronic and thermal Free Energies=        -1297.668999

                     E (Thermal)             CV                S
                      KCal/Mol        Cal/Mol-Kelvin    Cal/Mol-Kelvin
 Total                  243.182             74.482            134.289
 Electronic               0.000              0.000              0.000
 Translational            0.889              2.981             43.384
 Rotational               0.889              2.981             35.144
 Vibrational            241.405             68.520             55.760
 Vibration     1          0.594              1.984              5.805
 Vibration     2          0.597              1.972              4.394
 Vibration     3          0.601              1.958              3.719
 Vibration     4          0.603              1.953              3.563
 Vibration     5          0.618              1.902              2.669
 Vibration     6          0.626              1.877              2.411
 Vibration     7          0.632              1.858              2.257
 Vibration     8          0.645              1.816              1.988
 Vibration     9          0.656              1.784              1.825
 Vibration    10          0.673              1.732              1.608
 Vibration    11          0.674              1.728              1.594
 Vibration    12          0.681              1.708              1.526
 Vibration    13          0.696              1.663              1.386
 Vibration    14          0.696              1.662              1.384
 Vibration    15          0.703              1.644              1.334
 Vibration    16          0.705              1.636              1.313
 Vibration    17          0.726              1.579              1.175
 Vibration    18          0.737              1.548              1.108
 Vibration    19          0.747              1.521              1.056
 Vibration    20          0.765              1.473              0.967
 Vibration    21          0.777              1.442              0.917
 Vibration    22          0.788              1.413              0.870
 Vibration    23          0.794              1.399              0.850
 Vibration    24          0.825              1.321              0.743
 Vibration    25          0.833              1.303              0.721
 Vibration    26          0.846              1.272              0.683
 Vibration    27          0.879              1.197              0.601
 Vibration    28          0.919              1.111              0.517
 Vibration    29          0.939              1.069              0.481
 Vibration    30          0.955              1.038              0.455
 Vibration    31          0.971              1.007              0.430

 Normal termination of Gaussian 09 at Tue Feb 16 07:10:56 2016.
