 Gaussian 09, Revision B.01,
 Gaussian 09:  EM64L-G09RevB.01 12-Aug-2010

 -------------------------------------------------
 # freq=raman b3lyp/6-31+g(2d,p) geom=connectivity
 -------------------------------------------------

 -----------------
 493 5459/5459.com
 -----------------
 Symbolic Z-matrix:
 Charge =  0 Multiplicity = 1

                         Standard orientation:
 ---------------------------------------------------------------------
 Center     Atomic      Atomic             Coordinates (Angstroms)
 Number     Number       Type             X           Y           Z
 ---------------------------------------------------------------------
      1          8           0       -5.035336   -0.438731    0.228445
      2          6           0       -3.717782   -0.053708   -0.189271
      3          6           0       -3.278265    1.265999    0.423410
      4          8           0       -4.043646    2.381883   -0.052812
      5          1           0       -4.951541    2.055284    0.211227
      6          6           0       -1.888646    1.543997   -0.124519
      7          8           0       -1.347302    2.803834    0.296213
      8          1           0       -0.388604    2.930260    0.039604
      9          6           0       -3.053008   -2.591412   -0.146320
     10          8           0       -4.225066   -3.267719    0.332826
     11          1           0       -4.201815   -4.225074    0.046037
     12          6           0       -2.793426   -1.159360    0.292700
     13          8           0       -1.476250   -0.866302   -0.195636
     14          6           0       -0.921316    0.406772    0.163377
     15          8           0        0.233129    0.519946   -0.681933
     16          6           0        1.478047    0.174669   -0.055502
     17          6           0        2.068324   -1.180988   -0.409242
     18          8           0        1.068683   -2.189916   -0.203664
     19          1           0        0.274302   -1.657062   -0.496050
     20          6           0        3.416572   -1.567008    0.176096
     21          8           0        3.959289   -2.762495   -0.403220
     22          1           0        4.715553   -3.189551    0.091481
     23          6           0        2.273324    2.617090    0.058337
     24          8           0        1.168547    3.406044   -0.410091
     25          1           0        1.422956    4.349718   -0.198318
     26          6           0        2.598433    1.174124   -0.289023
     27          8           0        3.849588    0.851757    0.335124
     28          6           0        4.394096   -0.423062   -0.035481
     29          8           0        5.457832   -0.497013    0.925837
     30          1           0        6.297345   -0.582847    0.468179
     31          1           0        4.774356   -0.408982   -1.035534
     32          1           0        3.297883   -1.723104    1.227973
     33          1           0        2.226283   -1.148530   -1.467021
     34          1           0        1.291674    0.161961    0.998065
     35          1           0        2.782962    1.159721   -1.342893
     36          1           0        2.194505    2.634828    1.125283
     37          1           0        3.146402    3.171957   -0.215081
     38          1           0       -5.570412   -0.637578   -0.543405
     39          1           0       -2.205068   -3.174448    0.146877
     40          1           0       -3.096191   -2.595276   -1.215441
     41          1           0       -2.771414   -1.135052    1.362198
     42          1           0       -3.679929    0.011012   -1.256641
     43          1           0       -3.273179    1.221305    1.492464
     44          1           0       -1.987895    1.596810   -1.188596
     45          1           0       -0.632046    0.411671    1.193522
 ---------------------------------------------------------------------

 SCF Done:  E(RB3LYP) =  -1297.97343786     A.U. after   13 cycles

 The electronic state is 1-A.
 Alpha  occ. eigenvalues --  -19.19146 -19.19102 -19.18154 -19.17611 -19.17584
 Alpha  occ. eigenvalues --  -19.16631 -19.16524 -19.15796 -19.15556 -19.14035
 Alpha  occ. eigenvalues --  -19.12690 -10.30639 -10.30397 -10.26187 -10.25873
 Alpha  occ. eigenvalues --  -10.25560 -10.25344 -10.25226 -10.24940 -10.24341
 Alpha  occ. eigenvalues --  -10.24341 -10.23928 -10.23739  -1.10075  -1.09246
 Alpha  occ. eigenvalues --   -1.05831  -1.05239  -1.03945  -1.03414  -1.02704
 Alpha  occ. eigenvalues --   -1.02460  -1.02071  -1.01132  -0.99410  -0.82257
 Alpha  occ. eigenvalues --   -0.80200  -0.79573  -0.78394  -0.72128  -0.69928
 Alpha  occ. eigenvalues --   -0.67265  -0.65039  -0.63031  -0.62364  -0.61436
 Alpha  occ. eigenvalues --   -0.60187  -0.56706  -0.55985  -0.55052  -0.54729
 Alpha  occ. eigenvalues --   -0.53721  -0.53208  -0.52870  -0.51831  -0.50948
 Alpha  occ. eigenvalues --   -0.50719  -0.50213  -0.49614  -0.48467  -0.46824
 Alpha  occ. eigenvalues --   -0.46160  -0.44999  -0.44404  -0.43625  -0.43079
 Alpha  occ. eigenvalues --   -0.42656  -0.42110  -0.40635  -0.39699  -0.38812
 Alpha  occ. eigenvalues --   -0.38487  -0.38157  -0.37688  -0.36450  -0.36027
 Alpha  occ. eigenvalues --   -0.35595  -0.34691  -0.34593  -0.34342  -0.33146
 Alpha  occ. eigenvalues --   -0.32512  -0.31657  -0.30932  -0.30581  -0.29874
 Alpha  occ. eigenvalues --   -0.29496  -0.28530  -0.28345  -0.27190  -0.26400
 Alpha  occ. eigenvalues --   -0.26142
 Alpha virt. eigenvalues --   -0.02191  -0.01690  -0.01649  -0.00115   0.00196
 Alpha virt. eigenvalues --    0.00865   0.02039   0.02082   0.02761   0.03458
 Alpha virt. eigenvalues --    0.03889   0.04507   0.04586   0.05213   0.05734

 Mulliken atomic charges:
              1
     1  O   -0.535493
     2  C   -0.024439
     3  C    0.159615
     4  O   -0.522090
     5  H    0.335308
     6  C   -0.150718
     7  O   -0.608034
     8  H    0.432480
     9  C   -0.166617
    10  O   -0.530913
    11  H    0.334880
    12  C    0.135321
    13  O   -0.257106
    14  C    0.379412
    15  O   -0.216097
    16  C    0.246536
    17  C    0.109798
    18  O   -0.542888
    19  H    0.377559
    20  C    0.044078
    21  O   -0.550526
    22  H    0.342781
    23  C   -0.349861
    24  O   -0.556241
    25  H    0.356597
    26  C   -0.134111
    27  O   -0.220628
    28  C    0.155573
    29  O   -0.514224
    30  H    0.327390
    31  H    0.133553
    32  H    0.134212
    33  H    0.114758
    34  H    0.105502
    35  H    0.115278
    36  H    0.154888
    37  H    0.143892
    38  H    0.335362
    39  H    0.156487
    40  H    0.135552
    41  H    0.111337
    42  H    0.122044
    43  H    0.129219
    44  H    0.128610
    45  H    0.121966
 Sum of Mulliken atomic charges =   0.00000

 Dipole moment (field-independent basis, Debye):
    X=              3.1314    Y=             -0.4964    Z=             -1.4639  Tot=              3.4922
 Quadrupole moment (field-independent basis, Debye-Ang):
   XX=           -115.7729   YY=           -135.6024   ZZ=           -139.8484
   XY=             13.2450   XZ=              3.6417   YZ=              1.0791

  Exact polarizability: 233.690  -1.785 199.555   0.802   0.678 143.864
 Approx polarizability: 273.564  -1.395 259.847   0.310  -0.461 239.582

 ******    7 imaginary frequencies (negative Signs) ******

                     1                      2                      3
                     A                      A                      A
 Frequencies --  -337.9959              -285.3841              -259.9965
 Red. masses --     1.6686                 1.6682                 1.1639
 Frc consts  --     0.1123                 0.0801                 0.0464
 IR Inten    --     2.3098                23.1531                99.0324
 Raman Activ --     0.0142                 0.1184                 0.8545

                     4                      5                      6
                     A                      A                      A
 Frequencies --  -229.8995               -80.0782               -71.1212
 Red. masses --     1.2061                 6.4459                 5.9748
 Frc consts  --     0.0376                 0.0244                 0.0178
 IR Inten    --    82.9787                 1.2582                 0.5428
 Raman Activ --     0.7714                 0.0894                 0.0187

                     7                      8                      9
                     A                      A                      A
 Frequencies --   -14.0102                39.0280                52.3458
 Red. masses --     7.1889                 6.8393                 6.6271
 Frc consts  --     0.0008                 0.0061                 0.0107
 IR Inten    --     0.4722                 0.5208                 0.6801
 Raman Activ --     0.0465                 0.0293                 0.0434

                    10                     11                     12
                     A                      A                      A
 Frequencies --    60.8305                92.5194               100.0556
 Red. masses --     5.8406                 6.2236                 5.6461
 Frc consts  --     0.0127                 0.0314                 0.0333
 IR Inten    --     1.3133                 1.1989                 2.7729
 Raman Activ --     0.1977                 0.1969                 0.0514

                    13                     14                     15
                     A                      A                      A
 Frequencies --   151.7651               167.7117               179.2705
 Red. masses --     6.0810                 6.0505                 7.7007
 Frc consts  --     0.0825                 0.1003                 0.1458
 IR Inten    --     5.9493                 0.8477                 0.4742
 Raman Activ --     0.2719                 0.4409                 0.8147

                    16                     17                     18
                     A                      A                      A
 Frequencies --   207.6107               223.6639               245.1314
 Red. masses --     6.9528                 5.7478                 5.0614
 Frc consts  --     0.1766                 0.1694                 0.1792
 IR Inten    --     0.3389                 4.2282                11.9491
 Raman Activ --     2.4524                 0.6572                 0.3258

                    19                     20                     21
                     A                      A                      A
 Frequencies --   261.6745               271.8979               294.4647
 Red. masses --     4.5159                 5.0477                 5.8827
 Frc consts  --     0.1822                 0.2199                 0.3005
 IR Inten    --     8.1359                 5.6870                 4.6091
 Raman Activ --     0.0461                 0.2319                 0.2479

                    22                     23                     24
                     A                      A                      A
 Frequencies --   296.0444               309.2779               325.7218
 Red. masses --     4.7343                 5.9468                 6.7351
 Frc consts  --     0.2445                 0.3351                 0.4210
 IR Inten    --     2.3821                 2.8724                 1.3141
 Raman Activ --     0.2830                 4.2733                 4.3134

                    25                     26                     27
                     A                      A                      A
 Frequencies --   347.1703               359.7253               377.5943
 Red. masses --     6.4643                 5.1328                 7.2416
 Frc consts  --     0.4590                 0.3913                 0.6083
 IR Inten    --    10.4317                 2.2834                 3.7795
 Raman Activ --     2.0655                 1.1533                 1.1230

                    28                     29                     30
                     A                      A                      A
 Frequencies --   398.0151               413.7103               427.1244
 Red. masses --     4.0949                 5.1935                 7.0447
 Frc consts  --     0.3822                 0.5237                 0.7572
 IR Inten    --    17.2006                 3.9382                 2.0701
 Raman Activ --     1.4359                 8.9925                 1.1524

                    31                     32                     33
                     A                      A                      A
 Frequencies --   438.7919               476.8603               479.4111
 Red. masses --     3.9016                 4.9139                 4.0019
 Frc consts  --     0.4426                 0.6583                 0.5419
 IR Inten    --     1.0571                 9.9345                 7.2483
 Raman Activ --     0.9876                 1.1725                 2.8159

                    34                     35                     36
                     A                      A                      A
 Frequencies --   504.4159               529.8305               570.7810
 Red. masses --     4.4761                 3.0130                 3.5909
 Frc consts  --     0.6710                 0.4983                 0.6893
 IR Inten    --     6.6580                10.5417                10.8150
 Raman Activ --     3.5131                 2.7352                 1.5009

                    37                     38                     39
                     A                      A                      A
 Frequencies --   581.1698               592.1613               623.2865
 Red. masses --     3.3885                 6.7338                 5.3021
 Frc consts  --     0.6743                 1.3912                 1.2136
 IR Inten    --    54.9324                 7.1545                10.9434
 Raman Activ --     0.5912                 0.5712                 0.4807

                    40                     41                     42
                     A                      A                      A
 Frequencies --   639.8669               652.1535               682.4648
 Red. masses --     3.3502                 1.1046                 5.3733
 Frc consts  --     0.8082                 0.2768                 1.4745
 IR Inten    --    52.4340                58.9370                19.0812
 Raman Activ --     0.6655                 1.7686                 1.6157

                    43                     44                     45
                     A                      A                      A
 Frequencies --   689.9250               739.5638               773.0959
 Red. masses --     1.0583                 1.0938                 1.1301
 Frc consts  --     0.2968                 0.3525                 0.3980
 IR Inten    --   111.3253               102.9032                92.7561
 Raman Activ --     2.0605                 1.4692                 1.7510

                    46                     47                     48
                     A                      A                      A
 Frequencies --   814.8025               823.2469               850.1676
 Red. masses --     1.1235                 1.1029                 1.8235
 Frc consts  --     0.4395                 0.4404                 0.7766
 IR Inten    --    79.7617                58.8115                 5.6818
 Raman Activ --     2.9011                 0.7505                 0.7187

                    49                     50                     51
                     A                      A                      A
 Frequencies --   862.3725               924.9110               944.5157
 Red. masses --     1.6604                 5.4555                 6.3515
 Frc consts  --     0.7275                 2.7497                 3.3385
 IR Inten    --    15.9644               148.7535                36.8938
 Raman Activ --     0.4988                 2.9917                 0.3967

                    52                     53                     54
                     A                      A                      A
 Frequencies --   969.4479               976.4073               982.3997
 Red. masses --     6.2958                 6.6175                 5.3331
 Frc consts  --     3.4862                 3.7171                 3.0325
 IR Inten    --   161.8858                83.3185               155.3702
 Raman Activ --     1.2467                 4.1493                 1.6377

                    55                     56                     57
                     A                      A                      A
 Frequencies --   989.2159              1008.2838              1016.9867
 Red. masses --     4.7386                 6.3480                 5.7524
 Frc consts  --     2.7320                 3.8024                 3.5053
 IR Inten    --   306.9227                 8.2215               101.1586
 Raman Activ --     1.8853                 1.4810                 3.1381

                    58                     59                     60
                     A                      A                      A
 Frequencies --  1035.2867              1052.7019              1061.9856
 Red. masses --     5.2437                 4.9653                 3.2952
 Frc consts  --     3.3114                 3.2420                 2.1896
 IR Inten    --   317.7552               151.1263                13.5608
 Raman Activ --     2.6134                 5.7712                13.0164

                    61                     62                     63
                     A                      A                      A
 Frequencies --  1062.4704              1075.0915              1087.2193
 Red. masses --     5.4911                 3.9086                 3.9863
 Frc consts  --     3.6521                 2.6617                 2.7762
 IR Inten    --    78.4786                23.7935                27.6893
 Raman Activ --     2.2505                 3.2930                13.3574

                    64                     65                     66
                     A                      A                      A
 Frequencies --  1092.0834              1107.1445              1115.2508
 Red. masses --     2.8855                 3.1353                 2.1763
 Frc consts  --     2.0276                 2.2643                 1.5948
 IR Inten    --    38.4049                31.1943                90.5096
 Raman Activ --    15.0259                 4.9152                 3.4962

                    67                     68                     69
                     A                      A                      A
 Frequencies --  1116.1548              1122.3033              1128.4174
 Red. masses --     3.9034                 3.0002                 3.0162
 Frc consts  --     2.8651                 2.2265                 2.2628
 IR Inten    --    43.7721                33.2603                13.0551
 Raman Activ --     4.5518                 4.9146                 3.5537

                    70                     71                     72
                     A                      A                      A
 Frequencies --  1141.2698              1156.0435              1164.5744
 Red. masses --     2.3289                 1.6866                 1.6175
 Frc consts  --     1.7872                 1.3281                 1.2925
 IR Inten    --    17.1707                 7.7866                 1.9145
 Raman Activ --     6.5433                 3.2236                 3.1111

                    73                     74                     75
                     A                      A                      A
 Frequencies --  1170.1038              1183.2739              1195.1194
 Red. masses --     2.4972                 1.8097                 1.3639
 Frc consts  --     2.0145                 1.4929                 1.1478
 IR Inten    --    38.1394                 0.6902                 1.5396
 Raman Activ --     3.9235                 0.9747                 0.9842

                    76                     77                     78
                     A                      A                      A
 Frequencies --  1204.4772              1214.8912              1232.1134
 Red. masses --     2.0271                 1.4164                 1.2145
 Frc consts  --     1.7327                 1.2318                 1.0863
 IR Inten    --     8.3613                21.6692                17.2053
 Raman Activ --     1.7400                 3.9711                 0.4526

                    79                     80                     81
                     A                      A                      A
 Frequencies --  1233.7819              1243.9263              1250.5391
 Red. masses --     1.2806                 1.1957                 1.2843
 Frc consts  --     1.1485                 1.0901                 1.1833
 IR Inten    --    10.6428                 2.4221                18.8590
 Raman Activ --     1.2943                 1.9219                 2.3825

                    82                     83                     84
                     A                      A                      A
 Frequencies --  1268.1330              1283.1070              1292.6500
 Red. masses --     1.2690                 1.2471                 1.3518
 Frc consts  --     1.2024                 1.2097                 1.3308
 IR Inten    --    28.4667                 2.0964                24.1215
 Raman Activ --     0.7976                 4.9900                 1.4870

                    85                     86                     87
                     A                      A                      A
 Frequencies --  1294.4121              1312.6334              1317.9063
 Red. masses --     1.2531                 1.3196                 1.3736
 Frc consts  --     1.2370                 1.3396                 1.4057
 IR Inten    --     6.8999                26.5530                 3.9258
 Raman Activ --     4.8099                 6.4269                 2.4576

                    88                     89                     90
                     A                      A                      A
 Frequencies --  1322.2832              1327.2051              1330.1673
 Red. masses --     1.3204                 1.2250                 1.1777
 Frc consts  --     1.3602                 1.2713                 1.2277
 IR Inten    --    27.7916                24.2500                14.3894
 Raman Activ --     3.3230                 2.7194                 5.4019

                    91                     92                     93
                     A                      A                      A
 Frequencies --  1334.3250              1342.2967              1346.7662
 Red. masses --     1.2322                 1.2255                 1.2645
 Frc consts  --     1.2925                 1.3010                 1.3513
 IR Inten    --    39.0666                11.0332                11.4583
 Raman Activ --     0.2559                 9.4280                 2.9930

                    94                     95                     96
                     A                      A                      A
 Frequencies --  1374.5832              1376.3384              1384.1298
 Red. masses --     1.4160                 1.1277                 1.5657
 Frc consts  --     1.5764                 1.2586                 1.7673
 IR Inten    --     2.6578                21.9708                 1.9964
 Raman Activ --     5.7166                 1.0055                 9.2294

                    97                     98                     99
                     A                      A                      A
 Frequencies --  1386.0242              1389.3387              1397.0491
 Red. masses --     1.5308                 1.4221                 1.4209
 Frc consts  --     1.7326                 1.6173                 1.6339
 IR Inten    --    43.1862                 2.1459                 8.9315
 Raman Activ --     2.3287                 3.2460                 6.3910

                   100                    101                    102
                     A                      A                      A
 Frequencies --  1422.1342              1457.3983              1461.6930
 Red. masses --     1.3055                 1.2920                 1.3563
 Frc consts  --     1.5556                 1.6168                 1.7073
 IR Inten    --     0.9755                48.9511                11.5658
 Raman Activ --     9.2519                 0.4620                 3.1852

                   103                    104                    105
                     A                      A                      A
 Frequencies --  1466.1036              1473.4118              1492.2893
 Red. masses --     1.0908                 1.1081                 1.3278
 Frc consts  --     1.3814                 1.4174                 1.7421
 IR Inten    --     1.7757                 1.4475                17.6989
 Raman Activ --     3.7413                 3.1665                 0.6304

                   106                    107                    108
                     A                      A                      A
 Frequencies --  1498.2131              1550.0041              3229.5975
 Red. masses --     1.3302                 1.2292                 1.0697
 Frc consts  --     1.7592                 1.7400                 6.5737
 IR Inten    --    57.3416                71.5216               972.3930
 Raman Activ --     1.5805                 2.3036               141.7809

                   109                    110                    111
                     A                      A                      A
 Frequencies --  3250.1408              3254.1771              3255.1101
 Red. masses --     1.0774                 1.0686                 1.0728
 Frc consts  --     6.7055                 6.6673                 6.6975
 IR Inten    --    47.9512                 1.0700                32.0157
 Raman Activ --    53.3100               257.5252                38.8860

                   112                    113                    114
                     A                      A                      A
 Frequencies --  3256.3097              3273.2610              3275.3076
 Red. masses --     1.0582                 1.0831                 1.0844
 Frc consts  --     6.6111                 6.8373                 6.8541
 IR Inten    --    30.2930                47.8970                 5.6412
 Raman Activ --    83.5898                13.1205                50.9453

                   115                    116                    117
                     A                      A                      A
 Frequencies --  3278.9182              3286.2319              3288.3451
 Red. masses --     1.0830                 1.0839                 1.0850
 Frc consts  --     6.8605                 6.8963                 6.9126
 IR Inten    --     6.8850                 9.1045                 0.8991
 Raman Activ --    66.7591                85.3843                53.1127

                   118                    119                    120
                     A                      A                      A
 Frequencies --  3290.3505              3301.0794              3303.6634
 Red. masses --     1.0853                 1.0873                 1.0889
 Frc consts  --     6.9228                 6.9809                 7.0021
 IR Inten    --     8.9612                52.4194                52.4955
 Raman Activ --    82.8461                16.1844                10.8711

                   121                    122                    123
                     A                      A                      A
 Frequencies --  3309.2573              3312.3062              3326.7393
 Red. masses --     1.1048                 1.1037                 1.0659
 Frc consts  --     7.1282                 7.1346                 6.9505
 IR Inten    --    59.0670                52.2995               408.6394
 Raman Activ --    47.8885                22.5738               124.7114

                   124                    125                    126
                     A                      A                      A
 Frequencies --  3361.2941              3371.9607              3373.4877
 Red. masses --     1.0644                 1.0672                 1.0668
 Frc consts  --     7.0853                 7.1493                 7.1529
 IR Inten    --    24.0063                47.7279                78.6743
 Raman Activ --   100.6123               168.7025               129.0869

                   127                    128                    129
                     A                      A                      A
 Frequencies --  3379.4436              3889.1945              3890.9852
 Red. masses --     1.0678                 1.0676                 1.0674
 Frc consts  --     7.1847                 9.5141                 9.5214
 IR Inten    --    61.2236                73.3801                63.3386
 Raman Activ --   181.0093                85.6213               133.6895

 - Thermochemistry -
 -------------------
 Temperature   298.150 Kelvin.  Pressure   1.00000 Atm.
 Atom     1 has atomic number  8 and mass  15.99491

 Molecular mass:   342.11621 amu.
 Principal axes and moments of inertia in atomic units:
                           1         2         3
     Eigenvalues --  4538.74275********************
           X            0.99997   0.00750   0.00029
           Y           -0.00750   0.99997   0.00218
           Z           -0.00027  -0.00218   1.00000
 This molecule is an asymmetric top.
 Rotational symmetry number  1.
 Warning -- assumption of classical behavior for rotation
           may cause significant error
 Rotational temperatures (Kelvin)      0.01908     0.00697     0.00524
 Rotational constants (GHZ):           0.39763     0.14516     0.10915
    7 imaginary frequencies ignored.
 Zero-point vibrational energy     974016.7 (Joules/Mol)
                                  232.79557 (Kcal/Mol)
 Warning -- explicit consideration of  31 degrees of freedom as
           vibrations may cause significant error
 Vibrational temperatures:     56.15    75.31    87.52   133.11   143.96
          (Kelvin)            218.36   241.30   257.93   298.71   321.80
                              352.69   376.49   391.20   423.67   425.94
                              444.98   468.64   499.50   517.56   543.27
                              572.65   595.24   614.54   631.32   686.09
                              689.76   725.74   762.31   821.23   836.17
                              851.99   896.77   920.62   938.30   981.91
                              992.65  1064.07  1112.31  1172.32  1184.47
                             1223.20  1240.76  1330.74  1358.95  1394.82
                             1404.83  1413.45  1423.26  1450.69  1463.22
                             1489.54  1514.60  1527.96  1528.66  1546.81
                             1564.26  1571.26  1592.93  1604.60  1605.90
                             1614.74  1623.54  1642.03  1663.29  1675.56
                             1683.52  1702.47  1719.51  1732.97  1747.96
                             1772.73  1775.13  1789.73  1799.24  1824.56
                             1846.10  1859.83  1862.37  1888.58  1896.17
                             1902.47  1909.55  1913.81  1919.79  1931.26
                             1937.69  1977.72  1980.24  1991.45  1994.18
                             1998.95  2010.04  2046.13  2096.87  2103.05
                             2109.39  2119.91  2147.07  2155.59  2230.11
                             4646.66  4676.22  4682.03  4683.37  4685.10
                             4709.49  4712.43  4717.63  4728.15  4731.19
                             4734.07  4749.51  4753.23  4761.28  4765.66
                             4786.43  4836.15  4851.49  4853.69  4862.26
                             5595.68  5598.25

 Zero-point correction=                           0.370983 (Hartree/Particle)
 Thermal correction to Energy=                    0.389597
 Thermal correction to Enthalpy=                  0.390541
 Thermal correction to Gibbs Free Energy=         0.324596
 Sum of electronic and zero-point Energies=          -1297.602455
 Sum of electronic and thermal Energies=             -1297.583841
 Sum of electronic and thermal Enthalpies=           -1297.582897
 Sum of electronic and thermal Free Energies=        -1297.648842

                     E (Thermal)             CV                S
                      KCal/Mol        Cal/Mol-Kelvin    Cal/Mol-Kelvin
 Total                  244.476             76.185            138.793
 Electronic               0.000              0.000              0.000
 Translational            0.889              2.981             43.384
 Rotational               0.889              2.981             35.188
 Vibrational            242.698             70.223             60.220
 Vibration     1          0.594              1.981              5.308
 Vibration     2          0.596              1.977              4.727
 Vibration     3          0.597              1.973              4.430
 Vibration     4          0.602              1.955              3.606
 Vibration     5          0.604              1.949              3.453
 Vibration     6          0.619              1.901              2.650
 Vibration     7          0.624              1.882              2.461
 Vibration     8          0.629              1.868              2.336
 Vibration     9          0.641              1.829              2.065
 Vibration    10          0.649              1.805              1.929
 Vibration    11          0.660              1.771              1.765
 Vibration    12          0.669              1.743              1.651
 Vibration    13          0.675              1.725              1.584
 Vibration    14          0.689              1.684              1.448
 Vibration    15          0.690              1.681              1.439
 Vibration    16          0.699              1.656              1.366
 Vibration    17          0.710              1.624              1.281
 Vibration    18          0.725              1.581              1.179
 Vibration    19          0.734              1.555              1.123
 Vibration    20          0.748              1.518              1.049
 Vibration    21          0.764              1.474              0.970
 Vibration    22          0.777              1.440              0.914
 Vibration    23          0.789              1.411              0.868
 Vibration    24          0.799              1.386              0.830
 Vibration    25          0.833              1.301              0.719
 Vibration    26          0.836              1.296              0.712
 Vibration    27          0.860              1.240              0.647
 Vibration    28          0.885              1.184              0.588
 Vibration    29          0.927              1.094              0.503
 Vibration    30          0.938              1.072              0.483
 Vibration    31          0.950              1.048              0.463

 Normal termination of Gaussian 09 at Thu Mar 31 02:55:57 2016.
