 Gaussian 09, Revision B.01,
 Gaussian 09:  EM64L-G09RevB.01 12-Aug-2010

 -------------------------------------------------
 # freq=raman b3lyp/6-31+g(2d,p) geom=connectivity
 -------------------------------------------------

 -----------------
 483 6000/6000.com
 -----------------
 Symbolic Z-matrix:
 Charge =  0 Multiplicity = 1

                         Standard orientation:
 ---------------------------------------------------------------------
 Center     Atomic      Atomic             Coordinates (Angstroms)
 Number     Number       Type             X           Y           Z
 ---------------------------------------------------------------------
      1          8           0        4.990673   -0.571731   -0.362135
      2          6           0        3.700518   -0.172971    0.123670
      3          6           0        3.363777    1.236643   -0.336313
      4          8           0        4.220501    2.268381    0.174156
      5          1           0        5.179168    2.215007   -0.105217
      6          6           0        1.927089    1.631275   -0.033518
      7          8           0        1.354505    2.764241   -0.702626
      8          1           0        0.510737    3.017451   -0.230213
      9          6           0        2.882967   -2.625193    0.425820
     10          8           0        4.020113   -3.327091   -0.096674
     11          1           0        3.825720   -4.308560   -0.083624
     12          6           0        2.650988   -1.237321   -0.149689
     13          8           0        1.363871   -0.752811    0.256972
     14          6           0        0.935362    0.506415   -0.281772
     15          8           0       -0.284258    0.616872    0.467115
     16          6           0       -1.533362    0.275324   -0.150974
     17          6           0       -1.927838   -1.111889    0.329527
     18          8           0       -0.906435   -2.071567    0.022018
     19          1           0       -0.030271   -1.630897    0.218694
     20          6           0       -3.319244   -1.520398   -0.123940
     21          8           0       -3.922580   -2.790793    0.160610
     22          1           0       -4.776653   -3.029770   -0.301176
     23          6           0       -2.235751    2.698743    0.054750
     24          8           0       -1.186587    3.362535    0.773263
     25          1           0       -1.531255    4.288466    0.618068
     26          6           0       -2.621974    1.245199    0.279099
     27          8           0       -3.803586    0.803175   -0.404714
     28          6           0       -4.346152   -0.422693    0.105901
     29          8           0       -5.564626   -0.642234   -0.618259
     30          1           0       -6.273120   -0.837767   -0.000680
     31          1           0       -4.552447   -0.325161    1.151286
     32          1           0       -3.214644   -1.545926   -1.188509
     33          1           0       -1.970043   -1.055799    1.397222
     34          1           0       -1.432435    0.281995   -1.216183
     35          1           0       -2.783342    1.111699    1.328403
     36          1           0       -3.122873    3.274171    0.218446
     37          1           0       -1.992424    2.788304   -0.983359
     38          1           0        5.549349   -0.818272    0.378607
     39          1           0        2.010371   -3.215317    0.238123
     40          1           0        3.004868   -2.532140    1.484773
     41          1           0        2.611906   -1.355277   -1.212449
     42          1           0        3.789764   -0.118756    1.188563
     43          1           0        3.470270    1.245146   -1.400967
     44          1           0        1.891285    1.847564    1.013782
     45          1           0        0.725063    0.413237   -1.326757
 ---------------------------------------------------------------------

 SCF Done:  E(RB3LYP) =  -1297.96270972     A.U. after   13 cycles

 The electronic state is 1-A.
 Alpha  occ. eigenvalues --  -19.19155 -19.18259 -19.18024 -19.17556 -19.17540
 Alpha  occ. eigenvalues --  -19.16438 -19.16403 -19.15971 -19.15218 -19.14855
 Alpha  occ. eigenvalues --  -19.12776 -10.30676 -10.30484 -10.26075 -10.25496
 Alpha  occ. eigenvalues --  -10.25437 -10.25421 -10.25269 -10.25227 -10.24975
 Alpha  occ. eigenvalues --  -10.24511 -10.24382 -10.24129  -1.10340  -1.08810
 Alpha  occ. eigenvalues --   -1.06008  -1.04836  -1.03715  -1.03195  -1.02708
 Alpha  occ. eigenvalues --   -1.02531  -1.01652  -1.01198  -0.99801  -0.82199
 Alpha  occ. eigenvalues --   -0.80422  -0.79114  -0.78404  -0.71949  -0.70322
 Alpha  occ. eigenvalues --   -0.67587  -0.64740  -0.63496  -0.62724  -0.61212
 Alpha  occ. eigenvalues --   -0.59844  -0.56283  -0.55670  -0.55268  -0.54645
 Alpha  occ. eigenvalues --   -0.54402  -0.53436  -0.53087  -0.51973  -0.51312
 Alpha  occ. eigenvalues --   -0.50595  -0.50242  -0.49678  -0.48758  -0.46985
 Alpha  occ. eigenvalues --   -0.46091  -0.45386  -0.44629  -0.44140  -0.43693
 Alpha  occ. eigenvalues --   -0.42850  -0.41863  -0.41560  -0.40095  -0.39046
 Alpha  occ. eigenvalues --   -0.38956  -0.37624  -0.36672  -0.36100  -0.35421
 Alpha  occ. eigenvalues --   -0.35097  -0.34378  -0.33626  -0.33342  -0.33258
 Alpha  occ. eigenvalues --   -0.32760  -0.31270  -0.30836  -0.30123  -0.29569
 Alpha  occ. eigenvalues --   -0.29230  -0.29006  -0.28456  -0.27261  -0.26952
 Alpha  occ. eigenvalues --   -0.25937
 Alpha virt. eigenvalues --   -0.02318  -0.01670  -0.01618  -0.00086   0.00330
 Alpha virt. eigenvalues --    0.01021   0.01679   0.02074   0.03000   0.03220
 Alpha virt. eigenvalues --    0.03422   0.04436   0.04661   0.05378   0.05823

 Mulliken atomic charges:
              1
     1  O   -0.524790
     2  C    0.069546
     3  C    0.324611
     4  O   -0.557529
     5  H    0.345927
     6  C   -0.298380
     7  O   -0.557018
     8  H    0.395609
     9  C   -0.240256
    10  O   -0.521197
    11  H    0.342419
    12  C    0.070367
    13  O   -0.215767
    14  C    0.280819
    15  O   -0.256641
    16  C    0.075511
    17  C    0.358236
    18  O   -0.600859
    19  H    0.420788
    20  C   -0.054767
    21  O   -0.582206
    22  H    0.350729
    23  C   -0.410096
    24  O   -0.502022
    25  H    0.349583
    26  C    0.080125
    27  O   -0.265802
    28  C    0.183812
    29  O   -0.548074
    30  H    0.339401
    31  H    0.120879
    32  H    0.119811
    33  H    0.107757
    34  H    0.122732
    35  H    0.120628
    36  H    0.142201
    37  H    0.158004
    38  H    0.338301
    39  H    0.155538
    40  H    0.141394
    41  H    0.110451
    42  H    0.112973
    43  H    0.124168
    44  H    0.141039
    45  H    0.132051
 Sum of Mulliken atomic charges =   0.00000

 Dipole moment (field-independent basis, Debye):
    X=             -1.6235    Y=              0.6422    Z=              1.8955  Tot=              2.5770
 Quadrupole moment (field-independent basis, Debye-Ang):
   XX=           -116.8611   YY=           -132.9038   ZZ=           -140.8005
   XY=            -11.6554   XZ=             -1.1787   YZ=              0.3497

  Exact polarizability: 235.604   3.346 199.466  -0.166   0.130 144.613
 Approx polarizability: 276.534   3.243 257.603  -0.486   1.192 240.810

 ******    7 imaginary frequencies (negative Signs) ******

                     1                      2                      3
                     A                      A                      A
 Frequencies --  -325.1234              -272.4286              -242.2463
 Red. masses --     1.6953                 1.3684                 1.1934
 Frc consts  --     0.1056                 0.0598                 0.0413
 IR Inten    --     2.7412                65.9401               122.4956
 Raman Activ --     0.0447                 0.4904                 0.9087

                     4                      5                      6
                     A                      A                      A
 Frequencies --  -232.8759               -89.1201               -65.6699
 Red. masses --     1.3974                 7.4329                 6.1336
 Frc consts  --     0.0446                 0.0348                 0.0156
 IR Inten    --    46.1881                 1.6688                 0.5480
 Raman Activ --     0.5303                 0.0139                 0.0358

                     7                      8                      9
                     A                      A                      A
 Frequencies --   -36.1177                22.5862                49.9385
 Red. masses --     6.2459                 6.5050                 7.3233
 Frc consts  --     0.0048                 0.0020                 0.0108
 IR Inten    --     0.7704                 1.7320                 0.7851
 Raman Activ --     0.0408                 0.0563                 0.0510

                    10                     11                     12
                     A                      A                      A
 Frequencies --    76.4885                80.9283               115.9533
 Red. masses --     6.6402                 6.4930                 5.5292
 Frc consts  --     0.0229                 0.0251                 0.0438
 IR Inten    --     1.2031                 2.2734                 0.0571
 Raman Activ --     0.2648                 0.0762                 0.0952

                    13                     14                     15
                     A                      A                      A
 Frequencies --   132.8707               165.8555               177.1109
 Red. masses --     6.2071                 5.7090                 5.8744
 Frc consts  --     0.0646                 0.0925                 0.1086
 IR Inten    --     2.5122                 8.2472                 0.1110
 Raman Activ --     0.3354                 0.0812                 0.1050

                    16                     17                     18
                     A                      A                      A
 Frequencies --   189.3069               225.1675               239.5889
 Red. masses --     7.0131                 5.8012                 5.4774
 Frc consts  --     0.1481                 0.1733                 0.1852
 IR Inten    --     0.0326                 2.5927                15.6671
 Raman Activ --     2.6529                 0.8422                 0.6109

                    19                     20                     21
                     A                      A                      A
 Frequencies --   273.7598               282.7760               285.7700
 Red. masses --     4.7477                 4.4532                 5.9945
 Frc consts  --     0.2096                 0.2098                 0.2884
 IR Inten    --     2.2332                 9.1684                 0.9475
 Raman Activ --     0.3168                 0.5877                 0.2679

                    22                     23                     24
                     A                      A                      A
 Frequencies --   300.3343               308.5750               316.9308
 Red. masses --     6.2719                 6.9147                 4.6307
 Frc consts  --     0.3333                 0.3879                 0.2740
 IR Inten    --    14.9161                 1.5138                 2.0806
 Raman Activ --     0.3813                 3.2338                 2.1858

                    25                     26                     27
                     A                      A                      A
 Frequencies --   325.3369               352.8887               372.0062
 Red. masses --     6.8263                 5.5344                 6.0179
 Frc consts  --     0.4257                 0.4061                 0.4907
 IR Inten    --     2.0734                 7.3774                 0.9696
 Raman Activ --     7.0772                 0.4379                 0.6837

                    28                     29                     30
                     A                      A                      A
 Frequencies --   391.0753               405.2487               426.4391
 Red. masses --     4.8031                 5.8672                 4.8230
 Frc consts  --     0.4328                 0.5677                 0.5167
 IR Inten    --    11.5578                 5.7153                 1.7479
 Raman Activ --     2.2684                 6.3120                 2.2678

                    31                     32                     33
                     A                      A                      A
 Frequencies --   434.9536               457.5148               478.5213
 Red. masses --     5.3781                 4.2532                 4.3389
 Frc consts  --     0.5995                 0.5245                 0.5854
 IR Inten    --     8.3845                 6.0145                13.0671
 Raman Activ --     3.5021                 4.1171                 0.6370

                    34                     35                     36
                     A                      A                      A
 Frequencies --   497.1630               508.6469               555.9734
 Red. masses --     3.3961                 3.7130                 4.0534
 Frc consts  --     0.4946                 0.5660                 0.7382
 IR Inten    --     2.5975                27.8333                17.3259
 Raman Activ --     5.3496                 1.1592                 1.2258

                    37                     38                     39
                     A                      A                      A
 Frequencies --   566.7115               584.8393               612.7999
 Red. masses --     2.9799                 4.8359                 4.8128
 Frc consts  --     0.5639                 0.9745                 1.0648
 IR Inten    --    27.6206                 0.9953                41.6258
 Raman Activ --     0.3635                 0.7199                 0.7790

                    40                     41                     42
                     A                      A                      A
 Frequencies --   625.0629               630.3985               686.3634
 Red. masses --     4.5053                 1.1163                 1.0626
 Frc consts  --     1.0371                 0.2614                 0.2949
 IR Inten    --    42.8321                59.9505                75.9676
 Raman Activ --     1.3368                 1.8844                 2.0720

                    43                     44                     45
                     A                      A                      A
 Frequencies --   692.5339               703.8024               763.6643
 Red. masses --     1.5443                 2.1550                 1.1265
 Frc consts  --     0.4364                 0.6289                 0.3871
 IR Inten    --   100.9102                42.6868                93.2925
 Raman Activ --     0.9140                 2.3300                 1.0950

                    46                     47                     48
                     A                      A                      A
 Frequencies --   823.0092               841.2150               844.8280
 Red. masses --     1.1069                 1.3302                 1.4019
 Frc consts  --     0.4417                 0.5546                 0.5895
 IR Inten    --    70.9489                56.0896                25.2823
 Raman Activ --     0.1534                 1.0901                 0.6936

                    49                     50                     51
                     A                      A                      A
 Frequencies --   856.0420               906.7011               948.6880
 Red. masses --     1.6582                 5.0704                 5.3885
 Frc consts  --     0.7159                 2.4560                 2.8574
 IR Inten    --     9.2196               128.5085                59.4122
 Raman Activ --     0.5884                 3.2912                 0.9585

                    52                     53                     54
                     A                      A                      A
 Frequencies --   970.6679               979.8806               981.9979
 Red. masses --     5.1795                 6.2701                 5.0735
 Frc consts  --     2.8753                 3.5471                 2.8825
 IR Inten    --    30.6420               270.3913                35.3855
 Raman Activ --     2.0753                 1.1815                 1.0636

                    55                     56                     57
                     A                      A                      A
 Frequencies --   991.8500              1002.2954              1019.5849
 Red. masses --     6.6215                 6.1224                 6.2265
 Frc consts  --     3.8379                 3.6238                 3.8137
 IR Inten    --   160.4868                37.8750               128.9760
 Raman Activ --     3.9592                 5.7561                 2.2368

                    58                     59                     60
                     A                      A                      A
 Frequencies --  1030.2372              1040.5952              1055.2201
 Red. masses --     7.4909                 5.1440                 4.5325
 Frc consts  --     4.6844                 3.2818                 2.9736
 IR Inten    --   494.4698                66.5907               149.9100
 Raman Activ --     1.7072                 2.1827                11.2506

                    61                     62                     63
                     A                      A                      A
 Frequencies --  1067.9550              1076.5456              1088.3583
 Red. masses --     4.2404                 4.9088                 3.4274
 Frc consts  --     2.8494                 3.3519                 2.3920
 IR Inten    --    41.3880                54.7794                12.1485
 Raman Activ --     2.1024                 6.0643                 2.7450

                    64                     65                     66
                     A                      A                      A
 Frequencies --  1098.4582              1112.6656              1116.3651
 Red. masses --     4.2299                 3.6108                 2.7454
 Frc consts  --     3.0071                 2.6338                 2.0159
 IR Inten    --    16.3388                 4.0809                31.3417
 Raman Activ --    15.9029                 6.4994                 4.3040

                    67                     68                     69
                     A                      A                      A
 Frequencies --  1123.4303              1126.5360              1135.6046
 Red. masses --     2.0979                 2.8103                 2.4827
 Frc consts  --     1.5600                 2.1013                 1.8864
 IR Inten    --    92.4930                18.7699                40.4367
 Raman Activ --     9.6888                 5.5091                 4.7376

                    70                     71                     72
                     A                      A                      A
 Frequencies --  1152.3102              1160.7645              1164.4900
 Red. masses --     3.0057                 1.5473                 2.5509
 Frc consts  --     2.3514                 1.2283                 2.0381
 IR Inten    --    44.2676                22.1051                17.2016
 Raman Activ --     4.5569                 1.2340                 2.9619

                    73                     74                     75
                     A                      A                      A
 Frequencies --  1178.7593              1191.1040              1194.4253
 Red. masses --     2.0314                 1.6518                 1.7568
 Frc consts  --     1.6630                 1.3807                 1.4767
 IR Inten    --     2.3783                 6.4032                11.4742
 Raman Activ --     2.8399                 3.0522                 2.2484

                    76                     77                     78
                     A                      A                      A
 Frequencies --  1207.2166              1213.2446              1224.3916
 Red. masses --     1.2272                 1.3982                 1.1842
 Frc consts  --     1.0537                 1.2126                 1.0460
 IR Inten    --    12.8535                 6.2098                 1.3706
 Raman Activ --     2.5337                 1.8492                 2.7792

                    79                     80                     81
                     A                      A                      A
 Frequencies --  1239.9993              1247.6036              1257.8644
 Red. masses --     1.2767                 1.2878                 1.2417
 Frc consts  --     1.1566                 1.1810                 1.1575
 IR Inten    --     8.0610                 9.8765                28.8843
 Raman Activ --     1.5731                 1.3203                 0.4311

                    82                     83                     84
                     A                      A                      A
 Frequencies --  1266.9215              1285.7095              1292.3388
 Red. masses --     1.4020                 1.2835                 1.3085
 Frc consts  --     1.3258                 1.2501                 1.2875
 IR Inten    --    29.6040                 2.4146                 7.1235
 Raman Activ --     1.8135                 2.3619                 3.0186

                    85                     86                     87
                     A                      A                      A
 Frequencies --  1304.6608              1307.0333              1313.8373
 Red. masses --     1.1730                 1.3757                 1.2545
 Frc consts  --     1.1763                 1.3847                 1.2758
 IR Inten    --     0.2512                25.6058                21.1716
 Raman Activ --     3.8251                 2.5801                 8.3759

                    88                     89                     90
                     A                      A                      A
 Frequencies --  1323.7526              1328.6227              1335.0031
 Red. masses --     1.3199                 1.3297                 1.3076
 Frc consts  --     1.3627                 1.3829                 1.3730
 IR Inten    --     5.6526                 5.1124                24.2205
 Raman Activ --     0.6593                 3.1302                11.7624

                    91                     92                     93
                     A                      A                      A
 Frequencies --  1342.2445              1343.7357              1345.7158
 Red. masses --     1.2256                 1.3496                 1.2122
 Frc consts  --     1.3010                 1.4357                 1.2934
 IR Inten    --    18.1778                44.5062                46.2564
 Raman Activ --     2.6449                 4.9856                 2.8619

                    94                     95                     96
                     A                      A                      A
 Frequencies --  1368.5329              1375.6810              1382.7503
 Red. masses --     1.4071                 1.3983                 1.6048
 Frc consts  --     1.5527                 1.5591                 1.8078
 IR Inten    --    12.1750                 7.3126                 9.5895
 Raman Activ --     9.1817                 1.9730                 5.9389

                    97                     98                     99
                     A                      A                      A
 Frequencies --  1387.7701              1389.6915              1397.9078
 Red. masses --     1.3343                 1.3262                 1.4820
 Frc consts  --     1.5140                 1.5091                 1.7063
 IR Inten    --     0.8105                25.0956                14.1706
 Raman Activ --     4.4330                 3.3131                 4.5274

                   100                    101                    102
                     A                      A                      A
 Frequencies --  1410.3288              1417.4069              1460.7050
 Red. masses --     1.1945                 1.2103                 1.3137
 Frc consts  --     1.3998                 1.4327                 1.6514
 IR Inten    --    16.5936                 5.9437                25.8488
 Raman Activ --     0.9957                 2.4766                 2.7765

                   103                    104                    105
                     A                      A                      A
 Frequencies --  1471.4127              1471.5684              1481.0409
 Red. masses --     1.1151                 1.0855                 1.2995
 Frc consts  --     1.4224                 1.3850                 1.6794
 IR Inten    --     1.8096                15.6576                18.5110
 Raman Activ --     2.2448                 5.1806                 1.0448

                   106                    107                    108
                     A                      A                      A
 Frequencies --  1525.8125              1540.5613              3218.4077
 Red. masses --     1.2618                 1.2037                 1.0691
 Frc consts  --     1.7308                 1.6831                 6.5246
 IR Inten    --    32.9725                42.5525               962.4873
 Raman Activ --     0.7873                 2.8180               187.4465

                   109                    110                    111
                     A                      A                      A
 Frequencies --  3251.4723              3253.0938              3257.1965
 Red. masses --     1.0697                 1.0672                 1.0599
 Frc consts  --     6.6632                 6.6543                 6.6255
 IR Inten    --    66.3505                31.9664                31.7491
 Raman Activ --    22.5285               177.7453               117.4655

                   112                    113                    114
                     A                      A                      A
 Frequencies --  3261.3091              3264.5157              3269.3146
 Red. masses --     1.0788                 1.0825                 1.0810
 Frc consts  --     6.7603                 6.7972                 6.8072
 IR Inten    --     3.9010                 6.8117                 1.0932
 Raman Activ --    89.1072                51.4011                 8.5924

                   115                    116                    117
                     A                      A                      A
 Frequencies --  3269.6865              3279.2214              3283.3870
 Red. masses --     1.0821                 1.0834                 1.0863
 Frc consts  --     6.8163                 6.8641                 6.9001
 IR Inten    --    15.4435                24.1334                45.2055
 Raman Activ --    79.2222                60.6042                62.0597

                   118                    119                    120
                     A                      A                      A
 Frequencies --  3286.8627              3296.1003              3299.7452
 Red. masses --     1.0854                 1.0889                 1.0886
 Frc consts  --     6.9086                 6.9702                 6.9838
 IR Inten    --    33.9599                 2.0746                66.5982
 Raman Activ --    35.2223                16.2402                24.2296

                   121                    122                    123
                     A                      A                      A
 Frequencies --  3304.6727              3309.7676              3316.8887
 Red. masses --     1.0983                 1.0696                 1.1058
 Frc consts  --     7.0668                 6.9032                 7.1682
 IR Inten    --    65.2602               544.9363                40.6508
 Raman Activ --    47.4094               154.6437                32.0300

                   124                    125                    126
                     A                      A                      A
 Frequencies --  3363.7605              3371.7813              3372.9419
 Red. masses --     1.0690                 1.0675                 1.0657
 Frc consts  --     7.1266                 7.1504                 7.1435
 IR Inten    --    43.9234                90.4744                35.7817
 Raman Activ --   151.6713               135.4930               127.5397

                   127                    128                    129
                     A                      A                      A
 Frequencies --  3374.9203              3887.9197              3893.6250
 Red. masses --     1.0672                 1.0677                 1.0674
 Frc consts  --     7.1618                 9.5088                 9.5344
 IR Inten    --    50.2347                76.2940                83.3049
 Raman Activ --   177.6611                79.8593               111.7946

 - Thermochemistry -
 -------------------
 Temperature   298.150 Kelvin.  Pressure   1.00000 Atm.
 Atom     1 has atomic number  8 and mass  15.99491

 Molecular mass:   342.11621 amu.
 Principal axes and moments of inertia in atomic units:
                           1         2         3
     Eigenvalues --  4545.59326********************
           X            0.99997  -0.00711  -0.00025
           Y            0.00711   0.99997  -0.00173
           Z            0.00026   0.00173   1.00000
 This molecule is an asymmetric top.
 Rotational symmetry number  1.
 Warning -- assumption of classical behavior for rotation
           may cause significant error
 Rotational temperatures (Kelvin)      0.01905     0.00706     0.00529
 Rotational constants (GHZ):           0.39703     0.14719     0.11026
    7 imaginary frequencies ignored.
 Zero-point vibrational energy     972229.8 (Joules/Mol)
                                  232.36849 (Kcal/Mol)
 Warning -- explicit consideration of  32 degrees of freedom as
           vibrations may cause significant error
 Vibrational temperatures:     32.50    71.85   110.05   116.44   166.83
          (Kelvin)            191.17   238.63   254.82   272.37   323.97
                              344.71   393.88   406.85   411.16   432.11
                              443.97   455.99   468.09   507.73   535.23
                              562.67   583.06   613.55   625.80   658.26
                              688.48   715.31   731.83   799.92   815.37
                              841.45   881.68   899.33   907.00   987.52
                              996.40  1012.61  1098.74  1184.13  1210.32
                             1215.52  1231.65  1304.54  1364.95  1396.57
                             1409.83  1412.87  1427.05  1442.08  1466.95
                             1482.28  1497.18  1518.22  1536.55  1548.91
                             1565.90  1580.43  1600.88  1606.20  1616.36
                             1620.83  1633.88  1657.92  1670.08  1675.44
                             1695.97  1713.73  1718.51  1736.91  1745.59
                             1761.62  1784.08  1795.02  1809.78  1822.82
                             1849.85  1859.39  1877.11  1880.53  1890.32
                             1904.58  1911.59  1920.77  1931.19  1933.33
                             1936.18  1969.01  1979.30  1989.47  1996.69
                             1999.45  2011.28  2029.15  2039.33  2101.63
                             2117.03  2117.26  2130.88  2195.30  2216.52
                             4630.57  4678.14  4680.47  4686.37  4692.29
                             4696.90  4703.81  4704.34  4718.06  4724.06
                             4729.06  4742.35  4747.59  4754.68  4762.01
                             4772.26  4839.70  4851.24  4852.90  4855.75
                             5593.84  5602.05

 Zero-point correction=                           0.370303 (Hartree/Particle)
 Thermal correction to Energy=                    0.389126
 Thermal correction to Enthalpy=                  0.390070
 Thermal correction to Gibbs Free Energy=         0.323353
 Sum of electronic and zero-point Energies=          -1297.592407
 Sum of electronic and thermal Energies=             -1297.573584
 Sum of electronic and thermal Enthalpies=           -1297.572639
 Sum of electronic and thermal Free Energies=        -1297.639356

                     E (Thermal)             CV                S
                      KCal/Mol        Cal/Mol-Kelvin    Cal/Mol-Kelvin
 Total                  244.180             76.647            140.418
 Electronic               0.000              0.000              0.000
 Translational            0.889              2.981             43.384
 Rotational               0.889              2.981             35.166
 Vibrational            242.403             70.685             61.867
 Vibration     1          0.593              1.985              6.393
 Vibration     2          0.595              1.978              4.820
 Vibration     3          0.599              1.965              3.979
 Vibration     4          0.600              1.962              3.868
 Vibration     5          0.608              1.936              3.167
 Vibration     6          0.613              1.921              2.904
 Vibration     7          0.624              1.884              2.482
 Vibration     8          0.628              1.871              2.359
 Vibration     9          0.633              1.855              2.235
 Vibration    10          0.650              1.803              1.917
 Vibration    11          0.657              1.780              1.806
 Vibration    12          0.676              1.722              1.572
 Vibration    13          0.682              1.706              1.517
 Vibration    14          0.684              1.700              1.499
 Vibration    15          0.693              1.673              1.415
 Vibration    16          0.698              1.657              1.370
 Vibration    17          0.704              1.641              1.326
 Vibration    18          0.709              1.625              1.283
 Vibration    19          0.729              1.569              1.153
 Vibration    20          0.744              1.530              1.072
 Vibration    21          0.759              1.489              0.996
 Vibration    22          0.770              1.459              0.944
 Vibration    23          0.788              1.413              0.870
 Vibration    24          0.796              1.394              0.843
 Vibration    25          0.816              1.344              0.773
 Vibration    26          0.835              1.298              0.714
 Vibration    27          0.853              1.256              0.665
 Vibration    28          0.864              1.231              0.637
 Vibration    29          0.911              1.127              0.532
 Vibration    30          0.923              1.103              0.511
 Vibration    31          0.942              1.064              0.476
 Vibration    32          0.972              1.005              0.428

 Normal termination of Gaussian 09 at Tue Mar 29 20:38:57 2016.
