 Gaussian 09, Revision B.01,
 Gaussian 09:  EM64L-G09RevB.01 12-Aug-2010

 -------------------------------------------------
 # freq=raman b3lyp/6-31+g(2d,p) geom=connectivity
 -------------------------------------------------

 -----------------
 320 8026/8026.com
 -----------------
 Symbolic Z-matrix:
 Charge =  0 Multiplicity = 1

                         Standard orientation:
 ---------------------------------------------------------------------
 Center     Atomic      Atomic             Coordinates (Angstroms)
 Number     Number       Type             X           Y           Z
 ---------------------------------------------------------------------
      1          8           0       -5.045357   -0.473791    0.172855
      2          6           0       -3.706795   -0.057518   -0.134195
      3          6           0       -3.257689    1.334409    0.278210
      4          8           0       -4.003945    2.345299   -0.415762
      5          1           0       -4.929863    1.968231   -0.380154
      6          6           0       -1.815092    1.582896   -0.130793
      7          8           0       -1.268521    2.771996    0.457518
      8          1           0       -0.321168    2.879901    0.158346
      9          6           0       -3.129601   -2.504593   -0.166512
     10          8           0       -4.273576   -3.111781    0.452147
     11          1           0       -4.274765   -4.104499    0.338011
     12          6           0       -2.746590   -1.129937    0.355684
     13          8           0       -1.429937   -0.819718   -0.124101
     14          6           0       -0.882706    0.448829    0.263527
     15          8           0        0.310110    0.680051   -0.499610
     16          6           0        1.545885    0.261359    0.098199
     17          6           0        1.876761   -1.125266   -0.426756
     18          8           0        0.872343   -2.136004   -0.258586
     19          1           0        0.010955   -1.677290   -0.038973
     20          6           0        3.209406   -1.641596    0.091304
     21          8           0        3.788842   -2.774778   -0.571558
     22          1           0        4.632070   -2.929050   -0.056068
     23          6           0        2.583726    2.717899    0.123451
     24          8           0        1.336309    3.315748   -0.257056
     25          1           0        1.476099    4.304857   -0.210096
     26          6           0        2.675233    1.234810   -0.198467
     27          8           0        3.942289    0.748141    0.269490
     28          6           0        4.295785   -0.594421   -0.092254
     29          8           0        5.355049   -0.884679    0.830933
     30          1           0        6.160342   -1.075285    0.344340
     31          1           0        3.375251    3.226897   -0.385773
     32          1           0        2.716358    2.846958    1.177326
     33          1           0        2.755719    1.209609   -1.265138
     34          1           0        1.412248    0.204269    1.158285
     35          1           0        1.997992   -1.010850   -1.483691
     36          1           0        3.112464   -1.862468    1.133761
     37          1           0        4.666572   -0.619720   -1.095637
     38          1           0       -5.525738   -0.633838   -0.642755
     39          1           0       -2.292442   -3.157217   -0.031800
     40          1           0       -3.323665   -2.420282   -1.215383
     41          1           0       -2.742422   -1.143227    1.425594
     42          1           0       -3.640674   -0.071987   -1.202052
     43          1           0       -3.366350    1.458281    1.335447
     44          1           0       -1.783040    1.689377   -1.194999
     45          1           0       -0.674725    0.472226    1.312858
 ---------------------------------------------------------------------

 SCF Done:  E(RB3LYP) =  -1297.98997270     A.U. after   13 cycles

 The electronic state is 1-A.
 Alpha  occ. eigenvalues --  -19.18958 -19.18760 -19.18349 -19.17843 -19.17343
 Alpha  occ. eigenvalues --  -19.17101 -19.16055 -19.16023 -19.15675 -19.13318
 Alpha  occ. eigenvalues --  -19.13296 -10.30547 -10.30058 -10.26126 -10.26067
 Alpha  occ. eigenvalues --  -10.25953 -10.25726 -10.25255 -10.24483 -10.24372
 Alpha  occ. eigenvalues --  -10.24290 -10.24080 -10.23941  -1.10199  -1.08902
 Alpha  occ. eigenvalues --   -1.05846  -1.05429  -1.04409  -1.03520  -1.02861
 Alpha  occ. eigenvalues --   -1.02344  -1.02264  -1.00466  -0.99923  -0.82276
 Alpha  occ. eigenvalues --   -0.80416  -0.79041  -0.78240  -0.72225  -0.69981
 Alpha  occ. eigenvalues --   -0.67397  -0.65077  -0.63203  -0.63094  -0.61144
 Alpha  occ. eigenvalues --   -0.59955  -0.56433  -0.56322  -0.55185  -0.54715
 Alpha  occ. eigenvalues --   -0.54085  -0.53079  -0.52718  -0.51391  -0.51354
 Alpha  occ. eigenvalues --   -0.50872  -0.50239  -0.49882  -0.48809  -0.47003
 Alpha  occ. eigenvalues --   -0.45623  -0.45080  -0.44601  -0.43861  -0.43115
 Alpha  occ. eigenvalues --   -0.42807  -0.41931  -0.41080  -0.40002  -0.39465
 Alpha  occ. eigenvalues --   -0.38828  -0.37924  -0.37644  -0.36604  -0.35987
 Alpha  occ. eigenvalues --   -0.35020  -0.34685  -0.34630  -0.34280  -0.33453
 Alpha  occ. eigenvalues --   -0.33005  -0.31479  -0.30875  -0.30437  -0.29824
 Alpha  occ. eigenvalues --   -0.29327  -0.28921  -0.28018  -0.27909  -0.26480
 Alpha  occ. eigenvalues --   -0.26232
 Alpha virt. eigenvalues --   -0.02101  -0.02061  -0.01649  -0.00202   0.00542
 Alpha virt. eigenvalues --    0.01162   0.01731   0.02392   0.03096   0.03563
 Alpha virt. eigenvalues --    0.03871   0.04463   0.04488   0.05375   0.05549

 Mulliken atomic charges:
              1
     1  O   -0.539566
     2  C   -0.241876
     3  C    0.344802
     4  O   -0.537657
     5  H    0.329808
     6  C   -0.012207
     7  O   -0.595477
     8  H    0.424122
     9  C   -0.146106
    10  O   -0.522559
    11  H    0.340804
    12  C    0.203469
    13  O   -0.269329
    14  C    0.025749
    15  O   -0.214358
    16  C    0.116359
    17  C    0.276665
    18  O   -0.582478
    19  H    0.397957
    20  C    0.060211
    21  O   -0.524493
    22  H    0.334419
    23  C   -0.276419
    24  O   -0.536381
    25  H    0.360694
    26  C   -0.069475
    27  O   -0.260072
    28  C    0.122995
    29  O   -0.528556
    30  H    0.334148
    31  H    0.152453
    32  H    0.155413
    33  H    0.113968
    34  H    0.109451
    35  H    0.115314
    36  H    0.134928
    37  H    0.137155
    38  H    0.344857
    39  H    0.149929
    40  H    0.134806
    41  H    0.117867
    42  H    0.120644
    43  H    0.127059
    44  H    0.138332
    45  H    0.132631
 Sum of Mulliken atomic charges =   0.00000

 Dipole moment (field-independent basis, Debye):
    X=              2.1773    Y=              0.1946    Z=             -1.2451  Tot=              2.5157
 Quadrupole moment (field-independent basis, Debye-Ang):
   XX=           -118.2070   YY=           -135.6433   ZZ=           -139.8716
   XY=             17.4310   XZ=              4.2956   YZ=             -1.8385

  Exact polarizability: 232.798   0.058 198.537   1.569   0.103 144.148
 Approx polarizability: 273.358   1.788 258.722   1.295  -0.557 239.540

 ******    7 imaginary frequencies (negative Signs) ******

                     1                      2                      3
                     A                      A                      A
 Frequencies --  -255.6138              -238.8848              -198.6282
 Red. masses --     1.6603                 1.9064                 1.3755
 Frc consts  --     0.0639                 0.0641                 0.0320
 IR Inten    --    40.4170                 2.0265                64.4291
 Raman Activ --     0.2827                 0.1133                 0.7821

                     4                      5                      6
                     A                      A                      A
 Frequencies --  -156.7102               -72.1979               -67.9330
 Red. masses --     1.2870                 6.2035                 5.8518
 Frc consts  --     0.0186                 0.0191                 0.0159
 IR Inten    --   107.0326                 2.9911                 0.2147
 Raman Activ --     0.8982                 0.0741                 0.0413

                     7                      8                      9
                     A                      A                      A
 Frequencies --   -22.7423                34.7098                53.6423
 Red. masses --     6.3555                 6.5603                 6.4097
 Frc consts  --     0.0019                 0.0047                 0.0109
 IR Inten    --     0.9578                 1.0023                 2.5944
 Raman Activ --     0.0498                 0.0578                 0.0929

                    10                     11                     12
                     A                      A                      A
 Frequencies --    65.2349                83.2404                88.7817
 Red. masses --     5.6275                 6.0948                 6.3703
 Frc consts  --     0.0141                 0.0249                 0.0296
 IR Inten    --     4.0679                 3.3654                 0.7374
 Raman Activ --     0.0540                 0.2520                 0.2708

                    13                     14                     15
                     A                      A                      A
 Frequencies --   148.1661               173.9994               200.8512
 Red. masses --     5.8140                 5.7905                 6.8723
 Frc consts  --     0.0752                 0.1033                 0.1633
 IR Inten    --     5.0761                 0.2124                 0.9226
 Raman Activ --     0.3327                 0.4441                 0.7230

                    16                     17                     18
                     A                      A                      A
 Frequencies --   207.8720               228.2371               250.8951
 Red. masses --     6.3403                 5.4562                 5.0985
 Frc consts  --     0.1614                 0.1675                 0.1891
 IR Inten    --     0.3878                 1.7041                17.2802
 Raman Activ --     2.4472                 0.4417                 0.4177

                    19                     20                     21
                     A                      A                      A
 Frequencies --   265.7225               281.7458               304.4206
 Red. masses --     4.7129                 4.1567                 4.2006
 Frc consts  --     0.1961                 0.1944                 0.2294
 IR Inten    --     1.0212                 2.3390                 2.0099
 Raman Activ --     0.0663                 0.1500                 0.2936

                    22                     23                     24
                     A                      A                      A
 Frequencies --   319.2820               320.7588               333.1911
 Red. masses --     6.1759                 5.9084                 5.9748
 Frc consts  --     0.3709                 0.3582                 0.3908
 IR Inten    --     2.6344                 0.8983                 9.1221
 Raman Activ --     3.9865                 2.7158                 1.1256

                    25                     26                     27
                     A                      A                      A
 Frequencies --   347.9116               368.8603               384.6248
 Red. masses --     6.3765                 4.9938                 5.2268
 Frc consts  --     0.4547                 0.4003                 0.4556
 IR Inten    --     8.4583                 4.5828                 0.6786
 Raman Activ --     2.5611                 0.5284                 1.0212

                    28                     29                     30
                     A                      A                      A
 Frequencies --   410.4262               417.7261               433.9870
 Red. masses --     6.0162                 5.3684                 4.3134
 Frc consts  --     0.5971                 0.5519                 0.4787
 IR Inten    --     9.4367                15.3619                 3.6973
 Raman Activ --     4.7441                 6.0705                 0.9931

                    31                     32                     33
                     A                      A                      A
 Frequencies --   439.9448               473.0537               490.9777
 Red. masses --     5.8594                 4.0372                 3.8645
 Frc consts  --     0.6682                 0.5323                 0.5489
 IR Inten    --     4.4032                 1.7334                 9.1089
 Raman Activ --     2.0057                 3.7051                 0.5271

                    34                     35                     36
                     A                      A                      A
 Frequencies --   504.0739               532.5922               573.0360
 Red. masses --     4.2351                 3.0929                 3.7165
 Frc consts  --     0.6340                 0.5169                 0.7190
 IR Inten    --     5.5482                10.7322                 4.8656
 Raman Activ --     2.5606                 2.7842                 2.2008

                    37                     38                     39
                     A                      A                      A
 Frequencies --   589.7553               602.5148               624.7023
 Red. masses --     2.9863                 6.1053                 6.2255
 Frc consts  --     0.6120                 1.3059                 1.4314
 IR Inten    --    37.1609                16.7802                 1.8544
 Raman Activ --     0.6366                 0.4679                 0.6147

                    40                     41                     42
                     A                      A                      A
 Frequencies --   633.1320               669.5046               678.2423
 Red. masses --     3.7690                 2.1103                 1.5436
 Frc consts  --     0.8901                 0.5573                 0.4184
 IR Inten    --    24.4882                73.5313                45.3785
 Raman Activ --     0.8598                 0.8733                 2.1227

                    43                     44                     45
                     A                      A                      A
 Frequencies --   734.2487               741.6074               765.1505
 Red. masses --     1.1006                 1.0871                 1.0875
 Frc consts  --     0.3496                 0.3523                 0.3751
 IR Inten    --    67.8866               116.1867                87.3869
 Raman Activ --     0.6264                 1.7133                 1.3455

                    46                     47                     48
                     A                      A                      A
 Frequencies --   777.3672               847.1781               855.2126
 Red. masses --     1.0911                 1.1647                 1.6637
 Frc consts  --     0.3885                 0.4925                 0.7169
 IR Inten    --    93.8933                55.5374                 5.6263
 Raman Activ --     1.3700                 0.3088                 0.3523

                    49                     50                     51
                     A                      A                      A
 Frequencies --   881.6384               921.7992               950.8243
 Red. masses --     1.7037                 6.0255                 5.4374
 Frc consts  --     0.7802                 3.0166                 2.8963
 IR Inten    --     8.2304               115.4441                72.3462
 Raman Activ --     0.9514                 3.1129                 0.4377

                    52                     53                     54
                     A                      A                      A
 Frequencies --   973.4898               979.4752               987.9464
 Red. masses --     6.4329                 5.6306                 4.9662
 Frc consts  --     3.5919                 3.1827                 2.8559
 IR Inten    --    93.7047               121.4210                25.9908
 Raman Activ --     1.8367                 2.4589                 0.7319

                    55                     56                     57
                     A                      A                      A
 Frequencies --  1002.7507              1009.2401              1019.9448
 Red. masses --     5.2027                 6.7922                 6.3538
 Frc consts  --     3.0822                 4.0761                 3.8944
 IR Inten    --   430.3293               106.3221               102.5121
 Raman Activ --     3.0555                 0.9678                 3.9596

                    58                     59                     60
                     A                      A                      A
 Frequencies --  1033.0749              1048.2623              1057.1485
 Red. masses --     6.1652                 5.4719                 4.7102
 Frc consts  --     3.8767                 3.5427                 3.1014
 IR Inten    --   275.1145               123.1620                57.5655
 Raman Activ --     2.6701                 8.4240                 7.8790

                    61                     62                     63
                     A                      A                      A
 Frequencies --  1060.7323              1076.5352              1080.1605
 Red. masses --     4.9012                 4.4859                 4.1183
 Frc consts  --     3.2491                 3.0631                 2.8310
 IR Inten    --    51.1388                47.1346                12.8385
 Raman Activ --     6.5452                 5.5274                11.4236

                    64                     65                     66
                     A                      A                      A
 Frequencies --  1096.6761              1106.6896              1108.4626
 Red. masses --     2.9944                 2.4060                 2.4735
 Frc consts  --     2.1218                 1.7362                 1.7907
 IR Inten    --    16.4537                16.9329                65.8120
 Raman Activ --     9.7465                 8.1698                 3.7938

                    67                     68                     69
                     A                      A                      A
 Frequencies --  1121.8846              1127.6638              1131.4596
 Red. masses --     2.7239                 2.0951                 3.6861
 Frc consts  --     2.0199                 1.5697                 2.7803
 IR Inten    --    32.5203                71.4190                33.3406
 Raman Activ --     1.6892                 3.4111                 5.9288

                    70                     71                     72
                     A                      A                      A
 Frequencies --  1133.1466              1154.4503              1158.9052
 Red. masses --     3.5172                 1.9199                 1.8808
 Frc consts  --     2.6608                 1.5076                 1.4883
 IR Inten    --     2.1972                16.8455                 1.4320
 Raman Activ --     5.7845                 3.5234                 2.5208

                    73                     74                     75
                     A                      A                      A
 Frequencies --  1163.6883              1178.6062              1202.1088
 Red. masses --     1.6418                 1.4388                 1.6956
 Frc consts  --     1.3100                 1.1775                 1.4437
 IR Inten    --     6.5940                 8.9113                 3.3885
 Raman Activ --     2.9786                 1.6870                 2.4047

                    76                     77                     78
                     A                      A                      A
 Frequencies --  1204.4092              1226.7845              1229.7590
 Red. masses --     1.3438                 1.4785                 1.3734
 Frc consts  --     1.1485                 1.3111                 1.2237
 IR Inten    --    11.1081                 6.5502                 4.3458
 Raman Activ --     3.0323                 0.8317                 2.7103

                    79                     80                     81
                     A                      A                      A
 Frequencies --  1245.4110              1249.7452              1260.8566
 Red. masses --     1.2613                 1.2220                 1.2347
 Frc consts  --     1.1526                 1.1245                 1.1565
 IR Inten    --     3.9377                14.1826                 5.7996
 Raman Activ --     1.0395                 0.4688                 2.1961

                    82                     83                     84
                     A                      A                      A
 Frequencies --  1263.7147              1279.6193              1283.8577
 Red. masses --     1.2114                 1.3042                 1.3254
 Frc consts  --     1.1398                 1.2582                 1.2871
 IR Inten    --    12.5661                53.3852                 3.9920
 Raman Activ --     2.9047                 2.0993                 1.0879

                    85                     86                     87
                     A                      A                      A
 Frequencies --  1287.8154              1292.8975              1301.3517
 Red. masses --     1.2965                 1.2261                 1.2586
 Frc consts  --     1.2669                 1.2075                 1.2559
 IR Inten    --     5.0432                 5.2920                27.2905
 Raman Activ --     1.9263                 1.7600                 5.1184

                    88                     89                     90
                     A                      A                      A
 Frequencies --  1310.4692              1315.4823              1326.6517
 Red. masses --     1.2633                 1.2352                 1.2425
 Frc consts  --     1.2782                 1.2594                 1.2884
 IR Inten    --    15.1247                31.6881                38.5363
 Raman Activ --     2.6750                 8.9402                 0.8615

                    91                     92                     93
                     A                      A                      A
 Frequencies --  1331.7253              1333.9320              1346.7524
 Red. masses --     1.2799                 1.3600                 1.3271
 Frc consts  --     1.3374                 1.4258                 1.4182
 IR Inten    --     2.8083                38.0723                23.4832
 Raman Activ --     4.9359                 3.5463                 3.2502

                    94                     95                     96
                     A                      A                      A
 Frequencies --  1354.3740              1365.2096              1372.1403
 Red. masses --     1.2207                 1.5007                 1.6556
 Frc consts  --     1.3192                 1.6479                 1.8366
 IR Inten    --    19.3768                 7.4099                13.6742
 Raman Activ --     3.9958                10.8915                 9.0667

                    97                     98                     99
                     A                      A                      A
 Frequencies --  1378.6152              1411.4090              1411.6750
 Red. masses --     1.4656                 1.3699                 1.2693
 Frc consts  --     1.6412                 1.6078                 1.4904
 IR Inten    --     5.4139                 8.3626                 2.6827
 Raman Activ --     3.4659                 4.6828                 4.4754

                   100                    101                    102
                     A                      A                      A
 Frequencies --  1444.6855              1465.0240              1473.3236
 Red. masses --     1.3789                 1.3356                 1.3378
 Frc consts  --     1.6957                 1.6890                 1.7110
 IR Inten    --    23.7256                40.1949                32.4492
 Raman Activ --     1.8016                 1.8446                 1.6792

                   103                    104                    105
                     A                      A                      A
 Frequencies --  1475.0018              1481.1763              1482.8322
 Red. masses --     1.1168                 1.0851                 1.3475
 Frc consts  --     1.4316                 1.4026                 1.7456
 IR Inten    --     9.5065                 6.1519                30.2371
 Raman Activ --     3.2069                 5.4101                 0.9859

                   106                    107                    108
                     A                      A                      A
 Frequencies --  1498.9985              1543.1092              3245.2410
 Red. masses --     1.3278                 1.1878                 1.0718
 Frc consts  --     1.7578                 1.6664                 6.6506
 IR Inten    --    44.9299                56.3035               439.8968
 Raman Activ --     1.1193                 1.7084               160.9415

                   109                    110                    111
                     A                      A                      A
 Frequencies --  3250.2419              3257.2397              3261.1528
 Red. masses --     1.0786                 1.0579                 1.0581
 Frc consts  --     6.7135                 6.6132                 6.6301
 IR Inten    --    81.3354                32.3062               193.6419
 Raman Activ --   123.6832                94.6897                57.3221

                   112                    113                    114
                     A                      A                      A
 Frequencies --  3266.7776              3269.1309              3279.2864
 Red. masses --     1.0788                 1.0812                 1.0840
 Frc consts  --     6.7831                 6.8082                 6.8682
 IR Inten    --    67.8615                27.8811                86.7180
 Raman Activ --    96.4811                99.4066                85.0618

                   115                    116                    117
                     A                      A                      A
 Frequencies --  3280.7197              3282.9611              3286.4015
 Red. masses --     1.0781                 1.0790                 1.0850
 Frc consts  --     6.8369                 6.8515                 6.9043
 IR Inten    --   310.9222               291.8135                23.4876
 Raman Activ --   100.1878                64.9871               104.5981

                   118                    119                    120
                     A                      A                      A
 Frequencies --  3289.9123              3290.8733              3299.3091
 Red. masses --     1.0816                 1.0844                 1.0869
 Frc consts  --     6.8973                 6.9194                 6.9706
 IR Inten    --   278.9912                41.6244                42.6491
 Raman Activ --    78.7082                17.6074                 9.5552

                   121                    122                    123
                     A                      A                      A
 Frequencies --  3302.8209              3315.7083              3320.7431
 Red. masses --     1.0861                 1.1060                 1.1086
 Frc consts  --     6.9807                 7.1641                 7.2025
 IR Inten    --    96.6110                45.5362                36.5936
 Raman Activ --    23.5524                30.7313                59.7603

                   124                    125                    126
                     A                      A                      A
 Frequencies --  3355.6237              3358.2901              3373.0294
 Red. masses --     1.0652                 1.0649                 1.0664
 Frc consts  --     7.0666                 7.0758                 7.1486
 IR Inten    --    22.0382                36.6254                58.3428
 Raman Activ --    96.8793               103.2523               141.8098

                   127                    128                    129
                     A                      A                      A
 Frequencies --  3376.6331              3886.9438              3888.1020
 Red. masses --     1.0682                 1.0679                 1.0675
 Frc consts  --     7.1755                 9.5059                 9.5079
 IR Inten    --    45.0091                78.9224                62.8000
 Raman Activ --   187.0376                72.6070               127.6805

 - Thermochemistry -
 -------------------
 Temperature   298.150 Kelvin.  Pressure   1.00000 Atm.
 Atom     1 has atomic number  8 and mass  15.99491

 Molecular mass:   342.11621 amu.
 Principal axes and moments of inertia in atomic units:
                           1         2         3
     Eigenvalues --  4479.24914********************
           X            0.99996   0.00841   0.00070
           Y           -0.00841   0.99996   0.00054
           Z           -0.00069  -0.00055   1.00000
 This molecule is an asymmetric top.
 Rotational symmetry number  1.
 Warning -- assumption of classical behavior for rotation
           may cause significant error
 Rotational temperatures (Kelvin)      0.01934     0.00705     0.00531
 Rotational constants (GHZ):           0.40291     0.14699     0.11057
    7 imaginary frequencies ignored.
 Zero-point vibrational energy     975012.1 (Joules/Mol)
                                  233.03348 (Kcal/Mol)
 Warning -- explicit consideration of  31 degrees of freedom as
           vibrations may cause significant error
 Vibrational temperatures:     49.94    77.18    93.86   119.76   127.74
          (Kelvin)            213.18   250.35   288.98   299.08   328.38
                              360.98   382.31   405.37   437.99   459.38
                              461.50   479.39   500.57   530.71   553.39
                              590.51   601.01   624.41   632.98   680.62
                              706.41   725.25   766.28   824.47   848.53
                              866.88   898.81   910.93   963.27   975.84
                             1056.42  1067.01  1100.88  1118.46  1218.90
                             1230.46  1268.48  1326.26  1368.02  1400.63
                             1409.24  1421.43  1442.73  1452.07  1467.47
                             1486.36  1508.21  1521.00  1526.16  1548.89
                             1554.11  1577.87  1592.28  1594.83  1614.14
                             1622.45  1627.92  1630.34  1660.99  1667.40
                             1674.29  1695.75  1729.56  1732.87  1765.07
                             1769.35  1791.87  1798.10  1814.09  1818.20
                             1841.08  1847.18  1852.88  1860.19  1872.35
                             1885.47  1892.68  1908.75  1916.05  1919.23
                             1937.67  1948.64  1964.23  1974.20  1983.52
                             2030.70  2031.08  2078.58  2107.84  2119.78
                             2122.20  2131.08  2133.46  2156.72  2220.19
                             4669.17  4676.37  4686.44  4692.07  4700.16
                             4703.54  4718.16  4720.22  4723.44  4728.39
                             4733.44  4734.83  4746.96  4752.02  4770.56
                             4777.80  4827.99  4831.82  4853.03  4858.22
                             5592.44  5594.10

 Zero-point correction=                           0.371362 (Hartree/Particle)
 Thermal correction to Energy=                    0.389797
 Thermal correction to Enthalpy=                  0.390741
 Thermal correction to Gibbs Free Energy=         0.325038
 Sum of electronic and zero-point Energies=          -1297.618610
 Sum of electronic and thermal Energies=             -1297.600176
 Sum of electronic and thermal Enthalpies=           -1297.599232
 Sum of electronic and thermal Free Energies=        -1297.664935

                     E (Thermal)             CV                S
                      KCal/Mol        Cal/Mol-Kelvin    Cal/Mol-Kelvin
 Total                  244.601             75.771            138.285
 Electronic               0.000              0.000              0.000
 Translational            0.889              2.981             43.384
 Rotational               0.889              2.981             35.150
 Vibrational            242.824             69.809             59.750
 Vibration     1          0.594              1.983              5.540
 Vibration     2          0.596              1.976              4.678
 Vibration     3          0.597              1.971              4.292
 Vibration     4          0.600              1.961              3.813
 Vibration     5          0.602              1.957              3.687
 Vibration     6          0.618              1.905              2.696
 Vibration     7          0.627              1.874              2.392
 Vibration     8          0.638              1.839              2.125
 Vibration     9          0.641              1.829              2.062
 Vibration    10          0.651              1.798              1.893
 Vibration    11          0.663              1.761              1.724
 Vibration    12          0.672              1.736              1.624
 Vibration    13          0.681              1.707              1.523
 Vibration    14          0.695              1.665              1.392
 Vibration    15          0.705              1.637              1.314
 Vibration    16          0.706              1.634              1.306
 Vibration    17          0.715              1.609              1.245
 Vibration    18          0.726              1.580              1.176
 Vibration    19          0.741              1.536              1.085
 Vibration    20          0.754              1.503              1.021
 Vibration    21          0.775              1.448              0.925
 Vibration    22          0.781              1.432              0.900
 Vibration    23          0.795              1.396              0.846
 Vibration    24          0.800              1.383              0.827
 Vibration    25          0.830              1.310              0.729
 Vibration    26          0.847              1.270              0.681
 Vibration    27          0.859              1.241              0.648
 Vibration    28          0.888              1.178              0.581
 Vibration    29          0.929              1.090              0.498
 Vibration    30          0.947              1.054              0.468
 Vibration    31          0.961              1.026              0.445

 Normal termination of Gaussian 09 at Fri Mar 25 01:51:04 2016.
