 Gaussian 09, Revision B.01,
 Gaussian 09:  EM64L-G09RevB.01 12-Aug-2010

 -------------------------------------------------
 # freq=raman b3lyp/6-31+g(2d,p) geom=connectivity
 -------------------------------------------------

 -----------------
 473 9000/9000.com
 -----------------
 Symbolic Z-matrix:
 Charge =  0 Multiplicity = 1

                         Standard orientation:
 ---------------------------------------------------------------------
 Center     Atomic      Atomic             Coordinates (Angstroms)
 Number     Number       Type             X           Y           Z
 ---------------------------------------------------------------------
      1          8           0       -4.933817   -0.436597    0.412899
      2          6           0       -3.688750   -0.097395   -0.213297
      3          6           0       -3.279392    1.255100    0.347771
      4          8           0       -4.265237    2.233780   -0.012205
      5          1           0       -5.117467    1.710356   -0.022200
      6          6           0       -1.878940    1.623588   -0.114392
      7          8           0       -1.331703    2.762336    0.564606
      8          1           0       -0.570144    3.129342    0.031019
      9          6           0       -2.937209   -2.614647   -0.221916
     10          8           0       -4.047831   -3.311977    0.361449
     11          1           0       -3.977990   -4.265811    0.068780
     12          6           0       -2.665116   -1.164171    0.141297
     13          8           0       -1.424081   -0.770642   -0.462486
     14          6           0       -0.920516    0.459100    0.078705
     15          8           0        0.282621    0.573053   -0.693298
     16          6           0        1.488867    0.197518   -0.013262
     17          6           0        1.934851   -1.214059   -0.358754
     18          8           0        0.956576   -2.207196   -0.017900
     19          1           0        0.087421   -1.757499   -0.223425
     20          6           0        3.358116   -1.532625    0.068239
     21          8           0        3.945545   -2.719725   -0.483441
     22          1           0        4.745682   -2.973507    0.060887
     23          6           0        2.269725    2.687779    0.125830
     24          8           0        1.286407    3.402739   -0.636727
     25          1           0        1.378673    4.397193   -0.576096
     26          6           0        2.569137    1.242957   -0.238433
     27          8           0        3.799270    0.862361    0.394139
     28          6           0        4.363605   -0.394815   -0.006329
     29          8           0        5.391263   -0.629919    0.966716
     30          1           0        6.217701   -0.824503    0.518679
     31          1           0        4.783713   -0.324459   -0.987889
     32          1           0        3.272041   -1.741508    1.114116
     33          1           0        1.968915   -1.229820   -1.428095
     34          1           0        1.267931    0.202566    1.033667
     35          1           0        2.761536    1.240341   -1.290990
     36          1           0        3.187815    3.233119    0.057898
     37          1           0        1.956307    2.702882    1.148787
     38          1           0       -5.588893   -0.630385   -0.261579
     39          1           0       -2.055055   -3.170264    0.018901
     40          1           0       -3.062791   -2.655027   -1.283754
     41          1           0       -2.529600   -1.127784    1.202057
     42          1           0       -3.811295   -0.037712   -1.274579
     43          1           0       -3.264550    1.179317    1.414980
     44          1           0       -1.923143    1.849146   -1.159413
     45          1           0       -0.685191    0.338326    1.115496
 ---------------------------------------------------------------------

 SCF Done:  E(RB3LYP) =  -1297.99028778     A.U. after   13 cycles

 The electronic state is 1-A.
 Alpha  occ. eigenvalues --  -19.18631 -19.18286 -19.17957 -19.17886 -19.17452
 Alpha  occ. eigenvalues --  -19.17416 -19.16460 -19.16276 -19.15495 -19.14806
 Alpha  occ. eigenvalues --  -19.14216 -10.30633 -10.30538 -10.25962 -10.25748
 Alpha  occ. eigenvalues --  -10.25597 -10.25480 -10.25248 -10.24853 -10.24621
 Alpha  occ. eigenvalues --  -10.24613 -10.24472 -10.24344  -1.10468  -1.08798
 Alpha  occ. eigenvalues --   -1.06001  -1.04727  -1.03948  -1.03322  -1.02916
 Alpha  occ. eigenvalues --   -1.02590  -1.02367  -1.01184  -1.00872  -0.81959
 Alpha  occ. eigenvalues --   -0.80528  -0.79135  -0.78350  -0.72014  -0.70500
 Alpha  occ. eigenvalues --   -0.67574  -0.65129  -0.63438  -0.62899  -0.61302
 Alpha  occ. eigenvalues --   -0.59916  -0.56493  -0.55766  -0.55069  -0.54552
 Alpha  occ. eigenvalues --   -0.54119  -0.53528  -0.52922  -0.51968  -0.51078
 Alpha  occ. eigenvalues --   -0.50604  -0.50280  -0.49836  -0.49241  -0.46608
 Alpha  occ. eigenvalues --   -0.45979  -0.45133  -0.44611  -0.43964  -0.43739
 Alpha  occ. eigenvalues --   -0.42862  -0.42427  -0.41327  -0.39861  -0.39310
 Alpha  occ. eigenvalues --   -0.38216  -0.37808  -0.37054  -0.36742  -0.36300
 Alpha  occ. eigenvalues --   -0.35703  -0.34527  -0.34408  -0.34279  -0.34197
 Alpha  occ. eigenvalues --   -0.32853  -0.31811  -0.30794  -0.30537  -0.29866
 Alpha  occ. eigenvalues --   -0.29436  -0.29013  -0.28308  -0.27784  -0.27135
 Alpha  occ. eigenvalues --   -0.26558
 Alpha virt. eigenvalues --   -0.02159  -0.01998  -0.01697  -0.00428   0.00615
 Alpha virt. eigenvalues --    0.01077   0.01895   0.02509   0.02789   0.03251
 Alpha virt. eigenvalues --    0.03830   0.04318   0.04948   0.05443   0.05513

 Mulliken atomic charges:
              1
     1  O   -0.527813
     2  C   -0.069574
     3  C    0.264962
     4  O   -0.549519
     5  H    0.338634
     6  C   -0.237579
     7  O   -0.552524
     8  H    0.389555
     9  C   -0.199600
    10  O   -0.514303
    11  H    0.335638
    12  C    0.074195
    13  O   -0.251814
    14  C    0.252084
    15  O   -0.192985
    16  C    0.392256
    17  C    0.133060
    18  O   -0.560190
    19  H    0.393404
    20  C    0.053686
    21  O   -0.545864
    22  H    0.336505
    23  C   -0.242137
    24  O   -0.573611
    25  H    0.360510
    26  C   -0.157139
    27  O   -0.247746
    28  C    0.110107
    29  O   -0.524562
    30  H    0.333776
    31  H    0.130805
    32  H    0.134487
    33  H    0.115222
    34  H    0.107552
    35  H    0.118090
    36  H    0.148917
    37  H    0.156212
    38  H    0.338877
    39  H    0.155315
    40  H    0.138158
    41  H    0.114606
    42  H    0.127805
    43  H    0.127093
    44  H    0.135602
    45  H    0.129846
 Sum of Mulliken atomic charges =   0.00000

 Dipole moment (field-independent basis, Debye):
    X=              1.8728    Y=              0.0161    Z=             -2.3935  Tot=              3.0392
 Quadrupole moment (field-independent basis, Debye-Ang):
   XX=           -115.3816   YY=           -133.5129   ZZ=           -143.3192
   XY=             15.0901   XZ=              6.8395   YZ=             -1.5312

  Exact polarizability: 232.425  -2.173 199.361   1.191   0.163 144.379
 Approx polarizability: 272.661  -1.683 258.841   1.081  -0.558 241.097

 ******    6 imaginary frequencies (negative Signs) ******

                     1                      2                      3
                     A                      A                      A
 Frequencies --  -298.6542              -277.7939              -225.0786
 Red. masses --     1.7357                 1.7416                 1.2165
 Frc consts  --     0.0912                 0.0792                 0.0363
 IR Inten    --     6.1554                 7.2964               111.0650
 Raman Activ --     0.0937                 0.0403                 0.9359

                     4                      5                      6
                     A                      A                      A
 Frequencies --  -166.0951               -66.4167               -41.7872
 Red. masses --     1.2743                 6.6277                 5.5644
 Frc consts  --     0.0207                 0.0172                 0.0057
 IR Inten    --    97.1388                 0.6012                 3.8938
 Raman Activ --     0.7680                 0.0439                 0.0284

                     7                      8                      9
                     A                      A                      A
 Frequencies --    31.2972                41.9499                65.8283
 Red. masses --     6.3877                 6.1728                 6.1749
 Frc consts  --     0.0037                 0.0064                 0.0158
 IR Inten    --     2.2369                 1.2535                 3.0023
 Raman Activ --     0.0340                 0.0449                 0.2698

                    10                     11                     12
                     A                      A                      A
 Frequencies --    83.7942                94.9241               105.3583
 Red. masses --     6.8039                 6.0761                 6.1613
 Frc consts  --     0.0281                 0.0323                 0.0403
 IR Inten    --     2.5641                 0.1019                 2.6135
 Raman Activ --     0.1022                 0.0776                 0.1030

                    13                     14                     15
                     A                      A                      A
 Frequencies --   136.0240               156.5718               172.5170
 Red. masses --     6.1348                 5.7906                 7.7436
 Frc consts  --     0.0669                 0.0836                 0.1358
 IR Inten    --     5.3938                 3.4504                 0.0540
 Raman Activ --     0.2926                 0.1561                 0.2855

                    16                     17                     18
                     A                      A                      A
 Frequencies --   181.0791               230.1884               259.5176
 Red. masses --     6.6550                 6.0558                 4.4529
 Frc consts  --     0.1286                 0.1891                 0.1767
 IR Inten    --     0.0636                 1.7853                11.2012
 Raman Activ --     1.7698                 0.8218                 0.6265

                    19                     20                     21
                     A                      A                      A
 Frequencies --   276.5493               283.2013               297.8895
 Red. masses --     5.0588                 5.4226                 5.0460
 Frc consts  --     0.2280                 0.2562                 0.2638
 IR Inten    --     2.1209                 3.0628                 7.8260
 Raman Activ --     0.1021                 0.2224                 0.1127

                    22                     23                     24
                     A                      A                      A
 Frequencies --   300.4245               315.1138               322.0925
 Red. masses --     5.2266                 5.7727                 5.2129
 Frc consts  --     0.2779                 0.3377                 0.3186
 IR Inten    --     5.5153                 1.4175                 9.1097
 Raman Activ --     1.3411                 2.7138                 1.5133

                    25                     26                     27
                     A                      A                      A
 Frequencies --   329.6449               349.6333               378.4369
 Red. masses --     5.8542                 5.3433                 7.7449
 Frc consts  --     0.3748                 0.3848                 0.6535
 IR Inten    --     2.3252                 5.8669                 1.5863
 Raman Activ --     6.7374                 0.4073                 1.5063

                    28                     29                     30
                     A                      A                      A
 Frequencies --   400.6809               417.2497               426.0392
 Red. masses --     3.7506                 6.0545                 4.7052
 Frc consts  --     0.3548                 0.6210                 0.5032
 IR Inten    --    24.6765                 1.9947                 2.9986
 Raman Activ --     2.5507                 7.6608                 1.4597

                    31                     32                     33
                     A                      A                      A
 Frequencies --   432.6969               471.1962               482.5274
 Red. masses --     5.2251                 4.5022                 3.7365
 Frc consts  --     0.5764                 0.5889                 0.5126
 IR Inten    --     2.7707                 4.2465                16.0615
 Raman Activ --     2.7714                 2.9875                 1.1527

                    34                     35                     36
                     A                      A                      A
 Frequencies --   498.4541               531.7517               561.7905
 Red. masses --     4.7209                 3.0731                 3.4853
 Frc consts  --     0.6911                 0.5120                 0.6481
 IR Inten    --     3.2849                 7.6866                10.0790
 Raman Activ --     2.6631                 3.6315                 0.8146

                    37                     38                     39
                     A                      A                      A
 Frequencies --   571.6310               596.0355               612.4075
 Red. masses --     3.3459                 6.4088                 5.3185
 Frc consts  --     0.6442                 1.3414                 1.1752
 IR Inten    --    40.9950                 2.6960                11.0234
 Raman Activ --     0.6495                 0.6113                 0.2321

                    40                     41                     42
                     A                      A                      A
 Frequencies --   627.9766               690.3482               695.3236
 Red. masses --     4.3909                 1.2441                 3.2659
 Frc consts  --     1.0202                 0.3493                 0.9303
 IR Inten    --    51.1220               103.9290                16.6589
 Raman Activ --     1.2162                 1.2293                 1.7561

                    43                     44                     45
                     A                      A                      A
 Frequencies --   708.6076               733.6052               750.0784
 Red. masses --     1.0706                 1.0655                 1.0840
 Frc consts  --     0.3167                 0.3378                 0.3593
 IR Inten    --   102.2087                86.8772                73.5872
 Raman Activ --     1.6494                 1.6667                 1.0949

                    46                     47                     48
                     A                      A                      A
 Frequencies --   793.6107               829.2982               850.4672
 Red. masses --     1.0840                 1.0737                 1.8120
 Frc consts  --     0.4022                 0.4351                 0.7722
 IR Inten    --   123.2954                55.5385                 1.1325
 Raman Activ --     1.2149                 0.7051                 1.0788

                    49                     50                     51
                     A                      A                      A
 Frequencies --   853.0155               920.7739               948.0231
 Red. masses --     1.7301                 5.4787                 5.7303
 Frc consts  --     0.7417                 2.7368                 3.0343
 IR Inten    --     4.5861               182.4435                38.0698
 Raman Activ --     0.4218                 3.0820                 0.3156

                    52                     53                     54
                     A                      A                      A
 Frequencies --   977.0827               984.4197               987.8608
 Red. masses --     6.6561                 6.9271                 4.7986
 Frc consts  --     3.7440                 3.9551                 2.7590
 IR Inten    --    15.3219               148.5180                16.6712
 Raman Activ --     3.3631                 1.0747                 0.9597

                    55                     56                     57
                     A                      A                      A
 Frequencies --   994.3571              1007.4323              1017.3399
 Red. masses --     5.8132                 6.1963                 6.3377
 Frc consts  --     3.3865                 3.7052                 3.8647
 IR Inten    --   403.8893                26.3478               108.3627
 Raman Activ --     2.8141                 1.4075                 3.2243

                    58                     59                     60
                     A                      A                      A
 Frequencies --  1033.7226              1050.7374              1061.1528
 Red. masses --     5.8754                 6.0218                 5.1633
 Frc consts  --     3.6991                 3.9171                 3.4255
 IR Inten    --   372.5502               137.5997                45.1182
 Raman Activ --     2.7004                 3.8295                 2.6916

                    61                     62                     63
                     A                      A                      A
 Frequencies --  1065.7967              1070.7267              1078.7535
 Red. masses --     3.4827                 3.7775                 6.0459
 Frc consts  --     2.3309                 2.5516                 4.1453
 IR Inten    --    12.8882                70.8938                30.4482
 Raman Activ --    10.1441                 7.7938                 5.5875

                    64                     65                     66
                     A                      A                      A
 Frequencies --  1099.5981              1105.1053              1110.4078
 Red. masses --     3.6331                 4.1018                 2.9562
 Frc consts  --     2.5882                 2.9514                 2.1476
 IR Inten    --    32.8464                14.5549                47.6797
 Raman Activ --    20.3779                 5.0896                 4.3309

                    67                     68                     69
                     A                      A                      A
 Frequencies --  1125.6194              1135.7953              1143.5432
 Red. masses --     3.0112                 2.6358                 2.8255
 Frc consts  --     2.2479                 2.0034                 2.1769
 IR Inten    --     7.9841                19.3727                35.9028
 Raman Activ --     2.9713                 3.2353                 1.9315

                    70                     71                     72
                     A                      A                      A
 Frequencies --  1152.7561              1160.3930              1168.9389
 Red. masses --     2.2877                 1.5923                 2.1465
 Frc consts  --     1.7911                 1.2632                 1.7281
 IR Inten    --    73.1538                 8.0485                10.5803
 Raman Activ --     5.6498                 3.5962                 1.8746

                    73                     74                     75
                     A                      A                      A
 Frequencies --  1177.7468              1184.6867              1195.6387
 Red. masses --     1.5320                 1.6776                 1.7868
 Frc consts  --     1.2520                 1.3872                 1.5049
 IR Inten    --     5.3414                 5.0395                20.4804
 Raman Activ --     2.2026                 1.8289                 1.9344

                    76                     77                     78
                     A                      A                      A
 Frequencies --  1199.9887              1225.0832              1234.1379
 Red. masses --     1.2643                 1.4675                 1.3124
 Frc consts  --     1.0726                 1.2977                 1.1777
 IR Inten    --    12.1327                20.8499                 2.8319
 Raman Activ --     0.9902                 2.8270                 0.9580

                    79                     80                     81
                     A                      A                      A
 Frequencies --  1241.8852              1245.0113              1270.6630
 Red. masses --     1.1701                 1.3219                 1.2933
 Frc consts  --     1.0632                 1.2072                 1.2303
 IR Inten    --    10.1209                 1.1163                 7.9745
 Raman Activ --     0.8303                 1.0598                 0.8049

                    82                     83                     84
                     A                      A                      A
 Frequencies --  1275.4726              1287.2703              1294.6693
 Red. masses --     1.2600                 1.1671                 1.2458
 Frc consts  --     1.2077                 1.1394                 1.2303
 IR Inten    --     5.6075                 7.6728                 1.9332
 Raman Activ --     0.2378                 2.8995                 5.7010

                    85                     86                     87
                     A                      A                      A
 Frequencies --  1299.0164              1303.0445              1309.4462
 Red. masses --     1.3011                 1.2477                 1.3282
 Frc consts  --     1.2935                 1.2482                 1.3418
 IR Inten    --    37.7664                21.6617                15.6710
 Raman Activ --     0.4157                 4.6393                 2.8294

                    88                     89                     90
                     A                      A                      A
 Frequencies --  1310.2537              1325.0757              1338.8824
 Red. masses --     1.2393                 1.2130                 1.2927
 Frc consts  --     1.2536                 1.2549                 1.3653
 IR Inten    --     6.4549                20.6444                67.5035
 Raman Activ --     7.0872                 2.7564                 6.7538

                    91                     92                     93
                     A                      A                      A
 Frequencies --  1344.0490              1346.9198              1348.4659
 Red. masses --     1.2441                 1.1972                 1.2179
 Frc consts  --     1.3241                 1.2797                 1.3048
 IR Inten    --     8.1425                 5.9988                44.7379
 Raman Activ --     2.1100                 5.4630                 2.3397

                    94                     95                     96
                     A                      A                      A
 Frequencies --  1362.7198              1374.6540              1376.3692
 Red. masses --     1.2408                 1.3296                 1.4615
 Frc consts  --     1.3576                 1.4803                 1.6313
 IR Inten    --    27.2248                10.4656                 1.8417
 Raman Activ --     7.3110                 3.3803                 7.3095

                    97                     98                     99
                     A                      A                      A
 Frequencies --  1378.2722              1393.3836              1408.9298
 Red. masses --     1.5282                 1.6313                 1.3395
 Frc consts  --     1.7104                 1.8660                 1.5666
 IR Inten    --    11.1965                 7.1816                 2.9311
 Raman Activ --     7.3317                 4.7740                 8.8084

                   100                    101                    102
                     A                      A                      A
 Frequencies --  1439.9951              1443.2040              1466.6394
 Red. masses --     1.3836                 1.4339                 1.2468
 Frc consts  --     1.6903                 1.7596                 1.5801
 IR Inten    --    34.3359                19.8854                33.0599
 Raman Activ --     0.8777                 1.9309                 0.6701

                   103                    104                    105
                     A                      A                      A
 Frequencies --  1470.4141              1470.7598              1478.9913
 Red. masses --     1.0837                 1.1054                 1.3563
 Frc consts  --     1.3805                 1.4088                 1.7480
 IR Inten    --     6.8089                 4.4097                13.5397
 Raman Activ --     4.5668                 5.0432                 0.7187

                   106                    107                    108
                     A                      A                      A
 Frequencies --  1485.4890              1546.5114              3249.7283
 Red. masses --     1.3841                 1.2209                 1.0773
 Frc consts  --     1.7995                 1.7205                 6.7033
 IR Inten    --    58.8149                45.9114                61.6627
 Raman Activ --     1.2231                 1.9356               115.9060

                   109                    110                    111
                     A                      A                      A
 Frequencies --  3254.2538              3256.8112              3263.0118
 Red. masses --     1.0589                 1.0738                 1.0658
 Frc consts  --     6.6074                 6.7103                 6.6857
 IR Inten    --    22.2950                12.0780                36.1904
 Raman Activ --   100.1999               146.4112                28.9305

                   112                    113                    114
                     A                      A                      A
 Frequencies --  3267.6536              3270.4538              3275.2550
 Red. masses --     1.0787                 1.0815                 1.0735
 Frc consts  --     6.7862                 6.8152                 6.7851
 IR Inten    --   161.3581                 6.4206               325.7982
 Raman Activ --    59.4058                44.5474                75.7632

                   115                    116                    117
                     A                      A                      A
 Frequencies --  3278.1567              3279.4599              3286.6182
 Red. masses --     1.0820                 1.0853                 1.0834
 Frc consts  --     6.8506                 6.8768                 6.8950
 IR Inten    --    18.3586                18.1870                44.6027
 Raman Activ --   164.8609                 9.2058               111.1201

                   118                    119                    120
                     A                      A                      A
 Frequencies --  3291.0342              3293.4239              3302.9686
 Red. masses --     1.0868                 1.0856                 1.0896
 Frc consts  --     6.9351                 6.9375                 7.0034
 IR Inten    --    64.0155                31.3588                44.3148
 Raman Activ --    28.9049                35.8599                 7.3612

                   121                    122                    123
                     A                      A                      A
 Frequencies --  3309.1460              3314.1424              3317.5189
 Red. masses --     1.1021                 1.0707                 1.1037
 Frc consts  --     7.1104                 6.9289                 7.1572
 IR Inten    --    74.1600               433.2010               111.4187
 Raman Activ --    41.6522               190.4975                22.2945

                   124                    125                    126
                     A                      A                      A
 Frequencies --  3356.0975              3364.5760              3365.3218
 Red. masses --     1.0645                 1.0680                 1.0664
 Frc consts  --     7.0643                 7.1234                 7.1155
 IR Inten    --    40.8031                75.4286                29.1450
 Raman Activ --    84.6990               123.4922               150.6890

                   127                    128                    129
                     A                      A                      A
 Frequencies --  3366.7770              3887.5448              3891.8325
 Red. masses --     1.0669                 1.0676                 1.0674
 Frc consts  --     7.1250                 9.5062                 9.5250
 IR Inten    --    51.4181                69.8737                69.7128
 Raman Activ --   160.2375                90.8675               125.5602

 - Thermochemistry -
 -------------------
 Temperature   298.150 Kelvin.  Pressure   1.00000 Atm.
 Atom     1 has atomic number  8 and mass  15.99491

 Molecular mass:   342.11621 amu.
 Principal axes and moments of inertia in atomic units:
                           1         2         3
     Eigenvalues --  4584.21626********************
           X            0.99997   0.00752   0.00086
           Y           -0.00752   0.99997   0.00102
           Z           -0.00085  -0.00103   1.00000
 This molecule is an asymmetric top.
 Rotational symmetry number  1.
 Warning -- assumption of classical behavior for rotation
           may cause significant error
 Rotational temperatures (Kelvin)      0.01889     0.00709     0.00532
 Rotational constants (GHZ):           0.39369     0.14769     0.11083
    6 imaginary frequencies ignored.
 Zero-point vibrational energy     974613.7 (Joules/Mol)
                                  232.93827 (Kcal/Mol)
 Warning -- explicit consideration of  33 degrees of freedom as
           vibrations may cause significant error
 Vibrational temperatures:     45.03    60.36    94.71   120.56   136.57
          (Kelvin)            151.59   195.71   225.27   248.21   260.53
                              331.19   373.39   397.89   407.46   428.60
                              432.24   453.38   463.42   474.28   503.04
                              544.49   576.49   600.33   612.97   622.55
                              677.95   694.25   717.16   765.07   808.29
                              822.45   857.56   881.12   903.52   993.26
                             1000.41  1019.53  1055.49  1079.19  1141.83
                             1193.17  1223.63  1227.30  1324.79  1363.99
                             1405.80  1416.36  1421.31  1430.66  1449.47
                             1463.72  1487.29  1511.77  1526.76  1533.44
                             1540.53  1552.08  1582.07  1590.00  1597.63
                             1619.51  1634.15  1645.30  1658.56  1669.54
                             1681.84  1694.51  1704.50  1720.26  1726.51
                             1762.62  1775.65  1786.79  1791.29  1828.20
                             1835.12  1852.09  1862.74  1868.99  1874.79
                             1884.00  1885.16  1906.49  1926.35  1933.78
                             1937.91  1940.14  1960.65  1977.82  1980.29
                             1983.02  2004.77  2027.13  2071.83  2076.45
                             2110.16  2115.60  2116.09  2127.94  2137.28
                             2225.08  4675.63  4682.14  4685.82  4694.74
                             4701.42  4705.45  4712.36  4716.53  4718.41
                             4728.70  4735.06  4738.50  4752.23  4761.12
                             4768.31  4773.16  4828.67  4840.87  4841.94
                             4844.04  5593.30  5599.47

 Zero-point correction=                           0.371211 (Hartree/Particle)
 Thermal correction to Energy=                    0.390659
 Thermal correction to Enthalpy=                  0.391604
 Thermal correction to Gibbs Free Energy=         0.323390
 Sum of electronic and zero-point Energies=          -1297.619077
 Sum of electronic and thermal Energies=             -1297.599628
 Sum of electronic and thermal Enthalpies=           -1297.598684
 Sum of electronic and thermal Free Energies=        -1297.666898

                     E (Thermal)             CV                S
                      KCal/Mol        Cal/Mol-Kelvin    Cal/Mol-Kelvin
 Total                  245.142             78.137            143.568
 Electronic               0.000              0.000              0.000
 Translational            0.889              2.981             43.384
 Rotational               0.889              2.981             35.166
 Vibrational            243.365             72.176             65.018
 Vibration     1          0.594              1.983              5.745
 Vibration     2          0.595              1.980              5.165
 Vibration     3          0.597              1.971              4.274
 Vibration     4          0.601              1.960              3.800
 Vibration     5          0.603              1.953              3.556
 Vibration     6          0.605              1.945              3.353
 Vibration     7          0.614              1.917              2.859
 Vibration     8          0.620              1.895              2.591
 Vibration     9          0.626              1.876              2.408
 Vibration    10          0.630              1.865              2.317
 Vibration    11          0.652              1.795              1.877
 Vibration    12          0.668              1.747              1.665
 Vibration    13          0.678              1.717              1.555
 Vibration    14          0.682              1.705              1.514
 Vibration    15          0.691              1.678              1.429
 Vibration    16          0.693              1.673              1.415
 Vibration    17          0.702              1.645              1.335
 Vibration    18          0.707              1.631              1.299
 Vibration    19          0.712              1.616              1.262
 Vibration    20          0.727              1.576              1.168
 Vibration    21          0.749              1.516              1.045
 Vibration    22          0.767              1.469              0.960
 Vibration    23          0.780              1.433              0.901
 Vibration    24          0.788              1.414              0.872
 Vibration    25          0.794              1.399              0.850
 Vibration    26          0.828              1.314              0.734
 Vibration    27          0.839              1.289              0.703
 Vibration    28          0.854              1.253              0.662
 Vibration    29          0.887              1.180              0.583
 Vibration    30          0.917              1.114              0.520
 Vibration    31          0.928              1.093              0.501
 Vibration    32          0.954              1.040              0.457
 Vibration    33          0.972              1.006              0.429

 Normal termination of Gaussian 09 at Tue Mar 29 18:30:09 2016.
