 Gaussian 09, Revision B.01,
 Gaussian 09:  EM64L-G09RevB.01 12-Aug-2010

 ------------------------------------------------
 # freq=raman b3lyp/6-31+g(d,p) geom=connectivity
 ------------------------------------------------

 -----------------------------
 450K 6000ps Cellobiose Unit 1
 -----------------------------
 Symbolic Z-matrix:
 Charge =  0 Multiplicity = 1

                         Standard orientation:
 ---------------------------------------------------------------------
 Center     Atomic      Atomic             Coordinates (Angstroms)
 Number     Number       Type             X           Y           Z
 ---------------------------------------------------------------------
      1          8           0        5.116504   -0.455682   -0.794005
      2          6           0        3.947017   -0.108327   -0.039050
      3          6           0        3.308275    1.209656   -0.442530
      4          8           0        4.160020    2.364221   -0.413777
      5          1           0        4.996280    1.990584   -0.814530
      6          6           0        2.009084    1.559044    0.266582
      7          8           0        1.450896    2.832366   -0.088209
      8          1           0        1.968939    3.600948    0.286551
      9          6           0        3.285001   -2.533375    0.569751
     10          8           0        2.283142   -3.507305    0.246096
     11          1           0        2.751891   -4.368595    0.441960
     12          6           0        2.895281   -1.206531   -0.060531
     13          8           0        1.681223   -0.734957    0.542069
     14          6           0        1.023195    0.428098    0.019477
     15          8           0       -0.172836    0.608878    0.791191
     16          6           0       -1.427069    0.377504    0.131466
     17          6           0       -1.902344   -1.064445    0.199913
     18          8           0       -0.934877   -2.098925   -0.033870
     19          1           0       -0.102275   -2.052870    0.517585
     20          6           0       -3.114768   -1.352500   -0.670336
     21          8           0       -3.348836   -2.762448   -0.542264
     22          1           0       -2.424996   -3.054226   -0.790171
     23          6           0       -2.429426    2.588884    0.617726
     24          8           0       -2.337274    3.391129   -0.568144
     25          1           0       -1.706233    4.156167   -0.433019
     26          6           0       -2.617925    1.087054    0.753927
     27          8           0       -3.885996    0.727212    0.187166
     28          6           0       -4.261258   -0.649406    0.038014
     29          8           0       -5.473508   -0.642583   -0.730606
     30          1           0        5.901037   -0.186198   -0.310802
     31          1           0       -6.158021   -0.177051   -0.244477
     32          1           0        3.348089   -2.421947    1.632062
     33          1           0        4.231765   -2.849956    0.184634
     34          1           0        2.677362   -1.405157   -1.089102
     35          1           0        0.805872    0.318081   -1.022428
     36          1           0        2.214210    1.582851    1.316466
     37          1           0        3.042154    1.082386   -1.471064
     38          1           0        4.260188   -0.000061    0.978350
     39          1           0       -1.341651    0.670129   -0.894192
     40          1           0       -2.231133   -1.204121    1.208520
     41          1           0       -2.988577   -1.035834   -1.684584
     42          1           0       -4.432467   -1.092137    0.996960
     43          1           0       -2.639885    0.846695    1.796349
     44          1           0       -3.242639    3.013770    1.168233
     45          1           0       -1.527932    2.797359    1.155078
 ---------------------------------------------------------------------

 SCF Done:  E(RB3LYP) =  -1297.92878959     A.U. after   13 cycles

 The electronic state is 1-A.
 Alpha  occ. eigenvalues --  -19.20673 -19.19141 -19.19086 -19.19068 -19.18319
 Alpha  occ. eigenvalues --  -19.17806 -19.16637 -19.16089 -19.15877 -19.15477
 Alpha  occ. eigenvalues --  -19.14461 -10.31963 -10.29202 -10.27783 -10.27216
 Alpha  occ. eigenvalues --  -10.26350 -10.26275 -10.25838 -10.25641 -10.25061
 Alpha  occ. eigenvalues --  -10.23974 -10.23840 -10.22818  -1.09723  -1.07743
 Alpha  occ. eigenvalues --   -1.07018  -1.05344  -1.04771  -1.03686  -1.03115
 Alpha  occ. eigenvalues --   -1.02723  -1.01211  -1.00353  -0.99577  -0.82767
 Alpha  occ. eigenvalues --   -0.81917  -0.79444  -0.78118  -0.72256  -0.69805
 Alpha  occ. eigenvalues --   -0.67636  -0.64156  -0.63859  -0.62268  -0.61242
 Alpha  occ. eigenvalues --   -0.60231  -0.57424  -0.55990  -0.55236  -0.54549
 Alpha  occ. eigenvalues --   -0.53813  -0.53466  -0.53216  -0.52549  -0.51104
 Alpha  occ. eigenvalues --   -0.50337  -0.49287  -0.48972  -0.46961  -0.46622
 Alpha  occ. eigenvalues --   -0.46315  -0.45152  -0.44470  -0.44177  -0.43681
 Alpha  occ. eigenvalues --   -0.43130  -0.42585  -0.41174  -0.40339  -0.39610
 Alpha  occ. eigenvalues --   -0.38272  -0.38242  -0.37033  -0.36632  -0.36346
 Alpha  occ. eigenvalues --   -0.35406  -0.35230  -0.34116  -0.33581  -0.33253
 Alpha  occ. eigenvalues --   -0.32317  -0.31316  -0.30453  -0.30393  -0.29950
 Alpha  occ. eigenvalues --   -0.29666  -0.28829  -0.28124  -0.27259  -0.26658
 Alpha  occ. eigenvalues --   -0.26213
 Alpha virt. eigenvalues --   -0.03851  -0.02019  -0.01376  -0.00086   0.00630
 Alpha virt. eigenvalues --    0.01124   0.01577   0.02162   0.02990   0.03193
 Alpha virt. eigenvalues --    0.03728   0.04153   0.04527   0.05187   0.05635

 Mulliken atomic charges:
              1
     1  O   -0.535416
     2  C   -0.281338
     3  C    0.263377
     4  O   -0.522487
     5  H    0.344331
     6  C   -0.087273
     7  O   -0.512888
     8  H    0.368047
     9  C   -0.205013
    10  O   -0.522107
    11  H    0.358912
    12  C    0.321017
    13  O   -0.398976
    14  C    0.257610
    15  O   -0.317693
    16  C    0.175471
    17  C    0.006881
    18  O   -0.574114
    19  H    0.416404
    20  C   -0.109296
    21  O   -0.464796
    22  H    0.373458
    23  C   -0.328873
    24  O   -0.524286
    25  H    0.353107
    26  C    0.021394
    27  O   -0.337108
    28  C    0.354730
    29  O   -0.495426
    30  H    0.364639
    31  H    0.350097
    32  H    0.142169
    33  H    0.148358
    34  H    0.140991
    35  H    0.120490
    36  H    0.139637
    37  H    0.134294
    38  H    0.129436
    39  H    0.139621
    40  H    0.113207
    41  H    0.148616
    42  H    0.128113
    43  H    0.136365
    44  H    0.130959
    45  H    0.135357
 Sum of Mulliken atomic charges =   0.00000

 Dipole moment (field-independent basis, Debye):
    X=              8.9005    Y=              0.8823    Z=              4.0535  Tot=              9.8198
 Quadrupole moment (field-independent basis, Debye-Ang):
   XX=           -120.6435   YY=           -136.9754   ZZ=           -139.4019
   XY=            -14.0614   XZ=             -6.8020   YZ=              1.2510

  Exact polarizability: 221.589   0.935 196.174  -0.077   0.591 143.908
 Approx polarizability: 263.274  -0.123 253.152   1.859   0.472 229.958

 ******    8 imaginary frequencies (negative Signs) ******

                     1                      2                      3
                     A                      A                      A
 Frequencies --  -321.3460              -290.1785              -203.4054
 Red. masses --     1.5569                 1.0656                 1.9771
 Frc consts  --     0.0947                 0.0529                 0.0482
 IR Inten    --     5.6392               141.0166                 3.3720
 Raman Activ --     0.0758                 1.5678                 0.0765

                     4                      5                      6
                     A                      A                      A
 Frequencies --  -160.7540               -75.5340               -61.4181
 Red. masses --     1.3988                 5.9764                 6.4471
 Frc consts  --     0.0213                 0.0201                 0.0143
 IR Inten    --   116.6666                 0.5543                 0.6755
 Raman Activ --     0.6916                 0.2500                 0.0363

                     7                      8                      9
                     A                      A                      A
 Frequencies --   -42.4832                -7.6700                36.7094
 Red. masses --     6.2167                 5.6164                 6.8192
 Frc consts  --     0.0066                 0.0002                 0.0054
 IR Inten    --     1.7736                 3.1191                 0.3896
 Raman Activ --     0.0246                 0.1049                 0.0671

                    10                     11                     12
                     A                      A                      A
 Frequencies --    59.9642                64.3404               100.3056
 Red. masses --     6.6851                 6.1667                 5.9517
 Frc consts  --     0.0142                 0.0150                 0.0353
 IR Inten    --     0.7469                 0.5744                 1.7494
 Raman Activ --     0.0655                 0.0307                 0.3679

                    13                     14                     15
                     A                      A                      A
 Frequencies --   117.8935               143.2652               162.6267
 Red. masses --     6.1971                 6.2973                 6.0544
 Frc consts  --     0.0507                 0.0762                 0.0943
 IR Inten    --     1.5741                 2.9035                 0.6449
 Raman Activ --     0.1921                 0.5868                 0.1393

                    16                     17                     18
                     A                      A                      A
 Frequencies --   182.7662               225.3404               237.3054
 Red. masses --     6.5609                 5.4016                 5.6173
 Frc consts  --     0.1291                 0.1616                 0.1864
 IR Inten    --     8.1975                 0.2382                 1.1967
 Raman Activ --     0.7981                 2.2137                 1.0064

                    19                     20                     21
                     A                      A                      A
 Frequencies --   243.3830               261.6685               277.6991
 Red. masses --     4.4031                 3.5179                 4.7672
 Frc consts  --     0.1537                 0.1419                 0.2166
 IR Inten    --     9.3237                 9.8835                 6.9072
 Raman Activ --     0.6335                 0.1471                 0.1095

                    22                     23                     24
                     A                      A                      A
 Frequencies --   300.5715               318.1073               336.9597
 Red. masses --     6.0250                 5.3923                 5.5501
 Frc consts  --     0.3207                 0.3215                 0.3713
 IR Inten    --     5.2076                13.5769                 2.6480
 Raman Activ --     0.5500                 0.3931                 5.3202

                    25                     26                     27
                     A                      A                      A
 Frequencies --   354.2594               368.1074               381.6009
 Red. masses --     7.3774                 4.0020                 4.6861
 Frc consts  --     0.5455                 0.3195                 0.4021
 IR Inten    --     5.2365                13.7300                 3.6770
 Raman Activ --     0.7951                 3.0927                 2.4087

                    28                     29                     30
                     A                      A                      A
 Frequencies --   400.1247               400.8779               428.0002
 Red. masses --     5.6046                 6.5548                 4.1627
 Frc consts  --     0.5287                 0.6206                 0.4493
 IR Inten    --     2.6231                11.1099                 0.9032
 Raman Activ --     1.5725                 4.7252                 1.3312

                    31                     32                     33
                     A                      A                      A
 Frequencies --   461.4388               472.0560               502.9270
 Red. masses --     7.3416                 3.6668                 4.4229
 Frc consts  --     0.9210                 0.4814                 0.6591
 IR Inten    --    10.0096                 7.2857                 5.7430
 Raman Activ --     1.3828                 1.9210                 3.8249

                    34                     35                     36
                     A                      A                      A
 Frequencies --   526.3258               544.1183               557.4489
 Red. masses --     5.1269                 4.4673                 3.9032
 Frc consts  --     0.8368                 0.7793                 0.7146
 IR Inten    --    26.9960                19.0801                12.2326
 Raman Activ --     3.3139                 5.9397                 1.0732

                    37                     38                     39
                     A                      A                      A
 Frequencies --   575.6334               583.2373               609.5314
 Red. masses --     3.0346                 3.1080                 3.2660
 Frc consts  --     0.5924                 0.6229                 0.7149
 IR Inten    --     8.3281                20.0073                39.8035
 Raman Activ --     0.8446                 0.3793                 0.3948

                    40                     41                     42
                     A                      A                      A
 Frequencies --   624.1648               642.5051               660.0368
 Red. masses --     1.2435                 3.5975                 1.1265
 Frc consts  --     0.2854                 0.8750                 0.2891
 IR Inten    --   154.4183                32.8769                69.7933
 Raman Activ --     0.7642                 0.4684                 1.4280

                    43                     44                     45
                     A                      A                      A
 Frequencies --   683.8003               705.5562               716.4359
 Red. masses --     1.2090                 2.6612                 1.1008
 Frc consts  --     0.3331                 0.7805                 0.3329
 IR Inten    --   104.8479                18.8339               161.0234
 Raman Activ --     2.5965                 2.1708                 2.5443

                    46                     47                     48
                     A                      A                      A
 Frequencies --   739.6450               747.6085               828.9233
 Red. masses --     1.1024                 1.1542                 2.8734
 Frc consts  --     0.3553                 0.3801                 1.1633
 IR Inten    --    67.5264               151.6040                12.8647
 Raman Activ --     1.5684                 2.8163                 3.4414

                    49                     50                     51
                     A                      A                      A
 Frequencies --   838.7829               880.4009               943.0648
 Red. masses --     2.4574                 2.4978                 6.3081
 Frc consts  --     1.0187                 1.1407                 3.3054
 IR Inten    --     6.6210                14.1449               184.3352
 Raman Activ --     3.3190                 1.1148                 1.5077

                    52                     53                     54
                     A                      A                      A
 Frequencies --   953.8061               988.2990              1002.1318
 Red. masses --     6.2892                 5.6391                 3.9672
 Frc consts  --     3.3711                 3.2451                 2.3474
 IR Inten    --   170.7785                31.2235                33.6453
 Raman Activ --     1.6725                 2.8518                 0.9345

                    55                     56                     57
                     A                      A                      A
 Frequencies --  1008.7926              1018.9238              1026.3403
 Red. masses --     6.2621                 2.7245                 2.7978
 Frc consts  --     3.7547                 1.6666                 1.7364
 IR Inten    --   242.5613               149.2780               153.4007
 Raman Activ --     1.3814                 1.8723                 4.0471

                    58                     59                     60
                     A                      A                      A
 Frequencies --  1035.7756              1040.0546              1059.2380
 Red. masses --     3.1420                 2.6276                 4.5620
 Frc consts  --     1.9861                 1.6747                 3.0157
 IR Inten    --    91.2421               108.5116                31.9360
 Raman Activ --     2.6305                 1.4826                12.3570

                    61                     62                     63
                     A                      A                      A
 Frequencies --  1067.0426              1071.8202              1078.1183
 Red. masses --     4.9548                 4.4610                 4.2703
 Frc consts  --     3.3238                 3.0195                 2.9244
 IR Inten    --   377.6263                38.6027                12.8978
 Raman Activ --     2.1071                 2.7588                 2.0488

                    64                     65                     66
                     A                      A                      A
 Frequencies --  1081.3280              1100.4811              1114.1338
 Red. masses --     4.1250                 2.3928                 3.1510
 Frc consts  --     2.8418                 1.7074                 2.3045
 IR Inten    --   107.7661                30.3723                47.1716
 Raman Activ --    11.8764                 6.3409                 3.8279

                    67                     68                     69
                     A                      A                      A
 Frequencies --  1120.7843              1134.5308              1144.3446
 Red. masses --     2.5562                 2.3043                 2.6385
 Frc consts  --     1.8919                 1.7475                 2.0357
 IR Inten    --    22.3896                62.7580                48.9585
 Raman Activ --     6.5800                 3.3754                 4.5482

                    70                     71                     72
                     A                      A                      A
 Frequencies --  1152.2693              1158.4676              1169.2564
 Red. masses --     1.7365                 2.6958                 2.0347
 Frc consts  --     1.3584                 2.1316                 1.6390
 IR Inten    --    15.7226                10.2260                25.8339
 Raman Activ --     1.0704                 3.3467                 1.9105

                    73                     74                     75
                     A                      A                      A
 Frequencies --  1176.5741              1182.5777              1194.6664
 Red. masses --     2.2233                 3.4875                 2.4177
 Frc consts  --     1.8134                 2.8736                 2.0331
 IR Inten    --    47.7741                33.3238                13.6681
 Raman Activ --     3.1231                 2.1901                 1.5258

                    76                     77                     78
                     A                      A                      A
 Frequencies --  1208.4069              1210.9429              1231.5307
 Red. masses --     1.4935                 1.6173                 1.2860
 Frc consts  --     1.2850                 1.3973                 1.1492
 IR Inten    --     3.2497                 4.8609                 4.4439
 Raman Activ --     3.6715                 3.1230                 2.4459

                    79                     80                     81
                     A                      A                      A
 Frequencies --  1239.2988              1243.4115              1245.1112
 Red. masses --     1.2491                 1.3968                 1.2966
 Frc consts  --     1.1303                 1.2724                 1.1843
 IR Inten    --    11.6956                62.8070                 2.6748
 Raman Activ --     2.6463                 3.1583                 3.2080

                    82                     83                     84
                     A                      A                      A
 Frequencies --  1261.6695              1269.0098              1280.9360
 Red. masses --     1.2153                 1.2318                 1.2083
 Frc consts  --     1.1398                 1.1687                 1.1681
 IR Inten    --     1.4948                 9.7527                 8.9401
 Raman Activ --     3.7565                 5.1020                 2.8095

                    85                     86                     87
                     A                      A                      A
 Frequencies --  1284.7459              1304.0081              1305.8468
 Red. masses --     1.1827                 1.2188                 1.2437
 Frc consts  --     1.1502                 1.2211                 1.2496
 IR Inten    --    27.8925                12.6302                16.0353
 Raman Activ --     4.7191                 1.9453                 2.0827

                    88                     89                     90
                     A                      A                      A
 Frequencies --  1315.8602              1324.3630              1330.5920
 Red. masses --     1.3868                 1.3734                 1.2536
 Frc consts  --     1.4148                 1.4192                 1.3076
 IR Inten    --    21.1884                30.0426                 9.8122
 Raman Activ --     0.7331                10.1025                 1.9149

                    91                     92                     93
                     A                      A                      A
 Frequencies --  1345.3847              1351.4648              1357.4092
 Red. masses --     1.2365                 1.1586                 1.3014
 Frc consts  --     1.3187                 1.2468                 1.4128
 IR Inten    --    46.4613                20.4640                36.6038
 Raman Activ --     5.5138                 6.8986                 3.1290

                    94                     95                     96
                     A                      A                      A
 Frequencies --  1366.2032              1375.1867              1389.3694
 Red. masses --     1.4089                 1.3928                 1.3857
 Frc consts  --     1.5494                 1.5519                 1.5760
 IR Inten    --    18.1642                10.1586                21.2429
 Raman Activ --     0.4045                 2.8301                13.5995

                    97                     98                     99
                     A                      A                      A
 Frequencies --  1398.2713              1401.7011              1412.4912
 Red. masses --     1.3864                 1.5820                 1.3945
 Frc consts  --     1.5970                 1.8314                 1.6392
 IR Inten    --     5.6194                23.6028                24.0568
 Raman Activ --     5.1267                 2.3746                 2.7321

                   100                    101                    102
                     A                      A                      A
 Frequencies --  1425.0961              1427.6539              1443.6796
 Red. masses --     1.5160                 1.2373                 1.0807
 Frc consts  --     1.8140                 1.4858                 1.3270
 IR Inten    --     6.0987                 2.6145                11.4260
 Raman Activ --     5.3224                 1.7676                 5.4145

                   103                    104                    105
                     A                      A                      A
 Frequencies --  1454.2326              1464.0081              1467.3789
 Red. masses --     1.3009                 1.2228                 1.3057
 Frc consts  --     1.6209                 1.5441                 1.6564
 IR Inten    --     5.8697                 0.1748                49.5398
 Raman Activ --     1.4062                 1.4005                 4.6004

                   106                    107                    108
                     A                      A                      A
 Frequencies --  1475.1520              1550.3181              3262.4150
 Red. masses --     1.2732                 1.2581                 1.0612
 Frc consts  --     1.6323                 1.7816                 6.6548
 IR Inten    --    24.9053                87.6905                47.3594
 Raman Activ --     3.9753                 1.6949               129.5134

                   109                    110                    111
                     A                      A                      A
 Frequencies --  3268.3881              3268.4739              3273.4259
 Red. masses --     1.0804                 1.0811                 1.0570
 Frc consts  --     6.7998                 6.8044                 6.6733
 IR Inten    --    15.3351                 8.4936                25.8055
 Raman Activ --    80.4745                16.9731               145.5234

                   112                    113                    114
                     A                      A                      A
 Frequencies --  3280.5957              3292.8137              3294.3860
 Red. masses --     1.0833                 1.0831                 1.0841
 Frc consts  --     6.8694                 6.9192                 6.9320
 IR Inten    --     8.3609                14.3840                 1.0509
 Raman Activ --    29.3543                39.5447               122.3507

                   115                    116                    117
                     A                      A                      A
 Frequencies --  3299.6901              3302.7684              3305.8466
 Red. masses --     1.0857                 1.0858                 1.0863
 Frc consts  --     6.9648                 6.9784                 6.9945
 IR Inten    --    54.6590                25.0626                 6.5506
 Raman Activ --    25.3968               142.3598                21.8951

                   118                    119                    120
                     A                      A                      A
 Frequencies --  3314.0844              3315.5561              3319.6408
 Red. masses --     1.0865                 1.1027                 1.0867
 Frc consts  --     7.0308                 7.1421                 7.0560
 IR Inten    --    35.9279                32.0971                68.8461
 Raman Activ --     8.3523                51.5030                25.0145

                   121                    122                    123
                     A                      A                      A
 Frequencies --  3336.2637              3370.3238              3382.2656
 Red. masses --     1.1089                 1.0641                 1.0693
 Frc consts  --     7.2722                 7.1213                 7.2075
 IR Inten    --    30.1769               151.9413                47.4350
 Raman Activ --    49.8122                80.0548                89.9860

                   124                    125                    126
                     A                      A                      A
 Frequencies --  3390.1265              3392.1455              3394.8326
 Red. masses --     1.0680                 1.0649                 1.0665
 Frc consts  --     7.2317                 7.2194                 7.2420
 IR Inten    --   185.4234                24.8827                32.8186
 Raman Activ --   133.7776                91.5525               155.0830

                   127                    128                    129
                     A                      A                      A
 Frequencies --  3400.7176              3912.6243              3918.1603
 Red. masses --     1.0674                 1.0677                 1.0667
 Frc consts  --     7.2731                 9.6306                 9.6480
 IR Inten    --    59.8477                68.4749                55.3004
 Raman Activ --   124.8397               103.3609               139.8579

 - Thermochemistry -
 -------------------
 Temperature   298.150 Kelvin.  Pressure   1.00000 Atm.
 Atom     1 has atomic number  8 and mass  15.99491

 Molecular mass:   342.11621 amu.
 Principal axes and moments of inertia in atomic units:
                           1         2         3
     Eigenvalues --  4677.71937********************
           X            0.99996  -0.00862  -0.00188
           Y            0.00863   0.99996   0.00111
           Z            0.00188  -0.00113   1.00000
 This molecule is an asymmetric top.
 Rotational symmetry number  1.
 Warning -- assumption of classical behavior for rotation
           may cause significant error
 Rotational temperatures (Kelvin)      0.01852     0.00721     0.00541
 Rotational constants (GHZ):           0.38582     0.15019     0.11275
    8 imaginary frequencies ignored.
 Zero-point vibrational energy     973649.9 (Joules/Mol)
                                  232.70791 (Kcal/Mol)
 Warning -- explicit consideration of  31 degrees of freedom as
           vibrations may cause significant error
 Vibrational temperatures:     52.82    86.27    92.57   144.32   169.62
          (Kelvin)            206.13   233.98   262.96   324.21   341.43
                              350.17   376.48   399.55   432.45   457.68
                              484.81   509.70   529.62   549.04   575.69
                              576.77   615.80   663.91   679.18   723.60
                              757.26   782.86   802.04   828.21   839.15
                              876.98   898.03   924.42   949.64   983.83
                             1015.14  1030.79  1064.18  1075.64  1192.63
                             1206.82  1266.70  1356.86  1372.31  1421.94
                             1441.84  1451.43  1466.00  1476.67  1490.25
                             1496.40  1524.01  1535.23  1542.11  1551.17
                             1555.79  1583.34  1602.99  1612.56  1632.33
                             1646.45  1657.86  1666.77  1682.30  1692.83
                             1701.46  1718.86  1738.63  1742.27  1771.90
                             1783.07  1788.99  1791.44  1815.26  1825.82
                             1842.98  1848.46  1876.17  1878.82  1893.23
                             1905.46  1914.42  1935.71  1944.45  1953.01
                             1965.66  1978.58  1998.99  2011.80  2016.73
                             2032.26  2050.39  2054.07  2077.13  2092.31
                             2106.38  2111.23  2122.41  2230.56  4693.88
                             4702.48  4702.60  4709.72  4720.04  4737.62
                             4739.88  4747.51  4751.94  4756.37  4768.22
                             4770.34  4776.22  4800.13  4849.14  4866.32
                             4877.63  4880.53  4884.40  4892.87  5629.39
                             5637.35

 Zero-point correction=                           0.370844 (Hartree/Particle)
 Thermal correction to Energy=                    0.388973
 Thermal correction to Enthalpy=                  0.389918
 Thermal correction to Gibbs Free Energy=         0.325074
 Sum of electronic and zero-point Energies=          -1297.557946
 Sum of electronic and thermal Energies=             -1297.539816
 Sum of electronic and thermal Enthalpies=           -1297.538872
 Sum of electronic and thermal Free Energies=        -1297.603715

                     E (Thermal)             CV                S
                      KCal/Mol        Cal/Mol-Kelvin    Cal/Mol-Kelvin
 Total                  244.085             74.920            136.475
 Electronic               0.000              0.000              0.000
 Translational            0.889              2.981             43.384
 Rotational               0.889              2.981             35.152
 Vibrational            242.307             68.959             57.938
 Vibration     1          0.594              1.982              5.429
 Vibration     2          0.597              1.973              4.458
 Vibration     3          0.597              1.971              4.319
 Vibration     4          0.604              1.949              3.448
 Vibration     5          0.608              1.934              3.135
 Vibration     6          0.616              1.910              2.760
 Vibration     7          0.623              1.888              2.519
 Vibration     8          0.630              1.863              2.300
 Vibration     9          0.650              1.802              1.916
 Vibration    10          0.656              1.784              1.823
 Vibration    11          0.659              1.774              1.778
 Vibration    12          0.669              1.743              1.651
 Vibration    13          0.679              1.715              1.548
 Vibration    14          0.693              1.673              1.414
 Vibration    15          0.705              1.639              1.320
 Vibration    16          0.718              1.602              1.227
 Vibration    17          0.730              1.567              1.147
 Vibration    18          0.741              1.538              1.088
 Vibration    19          0.751              1.509              1.033
 Vibration    20          0.766              1.470              0.962
 Vibration    21          0.767              1.468              0.959
 Vibration    22          0.790              1.409              0.865
 Vibration    23          0.819              1.336              0.762
 Vibration    24          0.829              1.312              0.732
 Vibration    25          0.858              1.244              0.651
 Vibration    26          0.881              1.192              0.595
 Vibration    27          0.899              1.153              0.556
 Vibration    28          0.913              1.123              0.529
 Vibration    29          0.932              1.084              0.494
 Vibration    30          0.940              1.068              0.479
 Vibration    31          0.968              1.012              0.434

 Normal termination of Gaussian 09 at Thu Oct 22 02:20:26 2015.
