 Gaussian 09, Revision B.01,
 Gaussian 09:  EM64L-G09RevB.01 12-Aug-2010

 --------------------------------------------------
 # freq=raman b3lyp/6-31+g(2df,p) geom=connectivity
 --------------------------------------------------

 ------------
 280 7000.com
 ------------
 Symbolic Z-matrix:
 Charge =  0 Multiplicity = 1

                         Standard orientation:
 ---------------------------------------------------------------------
 Center     Atomic      Atomic             Coordinates (Angstroms)
 Number     Number       Type             X           Y           Z
 ---------------------------------------------------------------------
      1          8           0       -5.022650    0.276836   -0.540438
      2          6           0       -3.826017    0.060074    0.211881
      3          6           0       -3.197820   -1.274609   -0.155776
      4          8           0       -4.209531   -2.224899    0.210600
      5          1           0       -5.042717   -1.937381   -0.261859
      6          6           0       -1.818125   -1.585532    0.400912
      7          8           0       -1.270380   -2.720004   -0.285277
      8          1           0       -0.281715   -2.695106   -0.135806
      9          6           0       -3.061485    2.496392    0.272235
     10          8           0       -4.057484    3.316176   -0.357338
     11          1           0       -3.791476    4.280132   -0.345111
     12          6           0       -2.761627    1.074488   -0.172988
     13          8           0       -1.437123    0.813804    0.314490
     14          6           0       -0.865886   -0.467243    0.009602
     15          8           0        0.419865   -0.597811    0.632113
     16          6           0        1.561189   -0.161367   -0.120253
     17          6           0        1.896947    1.261166    0.296954
     18          8           0        0.966186    2.262469   -0.139227
     19          1           0        0.043980    1.951968    0.088239
     20          6           0        3.321874    1.472014   -0.189122
     21          8           0        3.780730    2.744304    0.289753
     22          1           0        4.740979    2.907313    0.062296
     23          6           0        2.335017   -2.619574   -0.349949
     24          8           0        1.135070   -3.197350    0.186772
     25          1           0        1.336958   -4.166930    0.046146
     26          6           0        2.605737   -1.222460    0.183348
     27          8           0        3.927102   -0.898497   -0.274286
     28          6           0        4.318012    0.395430    0.208592
     29          8           0        5.543870    0.565182   -0.516751
     30          1           0        6.244589    0.810190    0.091989
     31          1           0        4.487741    0.384116    1.264984
     32          1           0        3.297980    1.513553   -1.258048
     33          1           0        1.914088    1.287384    1.366495
     34          1           0        1.327723   -0.180269   -1.164301
     35          1           0        2.657032   -1.302909    1.249085
     36          1           0        3.162650   -3.250097   -0.100218
     37          1           0        2.247368   -2.570782   -1.415236
     38          1           0       -0.722044   -0.517233   -1.049507
     39          1           0       -1.839204   -1.735217    1.460180
     40          1           0       -3.113144   -1.298522   -1.222152
     41          1           0       -4.026428    0.105039    1.261983
     42          1           0       -2.709448    1.081263   -1.241694
     43          1           0       -5.724342    0.561769    0.049513
     44          1           0       -2.139469    3.035621    0.208847
     45          1           0       -3.323245    2.441728    1.308282
 ---------------------------------------------------------------------

 SCF Done:  E(RB3LYP) =  -1298.01535282     A.U. after   13 cycles

 The electronic state is 1-A.
 Alpha  occ. eigenvalues --  -19.19566 -19.18343 -19.18299 -19.18167 -19.17941
 Alpha  occ. eigenvalues --  -19.17636 -19.16065 -19.16042 -19.14795 -19.14245
 Alpha  occ. eigenvalues --  -19.12222 -10.30851 -10.30256 -10.26056 -10.25832
 Alpha  occ. eigenvalues --  -10.25830 -10.25223 -10.24950 -10.24860 -10.24692
 Alpha  occ. eigenvalues --  -10.24145 -10.23792 -10.23726  -1.09827  -1.09204
 Alpha  occ. eigenvalues --   -1.06860  -1.05766  -1.04363  -1.03379  -1.02646
 Alpha  occ. eigenvalues --   -1.02217  -1.01435  -1.00924  -0.99671  -0.82312
 Alpha  occ. eigenvalues --   -0.80116  -0.79531  -0.78081  -0.71810  -0.69710
 Alpha  occ. eigenvalues --   -0.67786  -0.65043  -0.63666  -0.62294  -0.61288
 Alpha  occ. eigenvalues --   -0.59927  -0.57162  -0.56180  -0.55130  -0.54957
 Alpha  occ. eigenvalues --   -0.54097  -0.53293  -0.52976  -0.52036  -0.51096
 Alpha  occ. eigenvalues --   -0.50512  -0.50189  -0.49742  -0.48408  -0.46721
 Alpha  occ. eigenvalues --   -0.45626  -0.45278  -0.44857  -0.43648  -0.43343
 Alpha  occ. eigenvalues --   -0.42538  -0.41641  -0.41183  -0.40370  -0.39628
 Alpha  occ. eigenvalues --   -0.39386  -0.38515  -0.37983  -0.36727  -0.35910
 Alpha  occ. eigenvalues --   -0.35197  -0.34871  -0.34431  -0.33771  -0.33578
 Alpha  occ. eigenvalues --   -0.32772  -0.31660  -0.30892  -0.30404  -0.29949
 Alpha  occ. eigenvalues --   -0.29199  -0.28654  -0.28631  -0.27478  -0.27133
 Alpha  occ. eigenvalues --   -0.25886
 Alpha virt. eigenvalues --   -0.02139  -0.02099  -0.01613  -0.00063   0.00328
 Alpha virt. eigenvalues --    0.00905   0.01850   0.02231   0.03062   0.03633
 Alpha virt. eigenvalues --    0.03726   0.04119   0.05158   0.05262   0.05529

 Mulliken atomic charges:
              1
     1  O   -0.441775
     2  C   -0.180021
     3  C    0.043664
     4  O   -0.474643
     5  H    0.353397
     6  C   -0.178820
     7  O   -0.505379
     8  H    0.477838
     9  C   -0.376754
    10  O   -0.465296
    11  H    0.349394
    12  C    0.169749
    13  O   -0.088127
    14  C   -0.098154
    15  O   -0.027319
    16  C    0.420318
    17  C   -0.108665
    18  O   -0.455772
    19  H    0.396232
    20  C    0.029932
    21  O   -0.473722
    22  H    0.340600
    23  C   -0.356450
    24  O   -0.454494
    25  H    0.364176
    26  C   -0.330151
    27  O   -0.052730
    28  C   -0.034131
    29  O   -0.464103
    30  H    0.345438
    31  H    0.138202
    32  H    0.141708
    33  H    0.135384
    34  H    0.122824
    35  H    0.127415
    36  H    0.158703
    37  H    0.164852
    38  H    0.127239
    39  H    0.136048
    40  H    0.132985
    41  H    0.132859
    42  H    0.123247
    43  H    0.354720
    44  H    0.137603
    45  H    0.141974
 Sum of Mulliken atomic charges =   0.00000

 Dipole moment (field-independent basis, Debye):
    X=              2.9468    Y=              0.0029    Z=              1.7762  Tot=              3.4408
 Quadrupole moment (field-independent basis, Debye-Ang):
   XX=           -118.9594   YY=           -138.0160   ZZ=           -139.3756
   XY=            -15.1337   XZ=              2.2771   YZ=              3.1529

  Exact polarizability: 235.407   0.169 196.187  -0.286   1.228 143.474
 Approx polarizability: 277.121  -1.422 255.909  -1.265   1.521 238.963

 ******    7 imaginary frequencies (negative Signs) ******

                     1                      2                      3
                     A                      A                      A
 Frequencies --  -308.8070              -217.2677              -171.6078
 Red. masses --     1.6768                 1.8969                 1.2406
 Frc consts  --     0.0942                 0.0528                 0.0215
 IR Inten    --     4.0591                 0.7132               100.7048
 Raman Activ --     0.1270                 0.1111                 0.8552

                     4                      5                      6
                     A                      A                      A
 Frequencies --  -142.1626               -86.4248               -53.5002
 Red. masses --     1.2436                 6.8273                 6.1390
 Frc consts  --     0.0148                 0.0300                 0.0104
 IR Inten    --    96.6626                 2.0573                 0.1720
 Raman Activ --     0.6050                 0.0297                 0.0198

                     7                      8                      9
                     A                      A                      A
 Frequencies --   -46.2184                26.4514                70.3233
 Red. masses --     6.6413                 6.2689                 6.4186
 Frc consts  --     0.0084                 0.0026                 0.0187
 IR Inten    --     0.1520                 0.7193                 3.5548
 Raman Activ --     0.0363                 0.0218                 0.1608

                    10                     11                     12
                     A                      A                      A
 Frequencies --    80.6873                93.3651               113.4713
 Red. masses --     6.2010                 4.5804                 5.6977
 Frc consts  --     0.0238                 0.0235                 0.0432
 IR Inten    --     4.3410                10.9160                 0.8595
 Raman Activ --     0.1944                 0.2805                 0.0664

                    13                     14                     15
                     A                      A                      A
 Frequencies --   154.7545               177.1459               187.4671
 Red. masses --     6.2458                 6.0224                 7.9216
 Frc consts  --     0.0881                 0.1113                 0.1640
 IR Inten    --     2.0888                 0.8287                 1.5508
 Raman Activ --     0.3754                 0.1169                 0.8012

                    16                     17                     18
                     A                      A                      A
 Frequencies --   217.4945               234.7965               267.9646
 Red. masses --     7.3548                 5.3730                 4.5758
 Frc consts  --     0.2050                 0.1745                 0.1936
 IR Inten    --     0.9663                 2.9077                17.9761
 Raman Activ --     3.1615                 0.2229                 0.4641

                    19                     20                     21
                     A                      A                      A
 Frequencies --   288.5102               296.3740               301.9647
 Red. masses --     4.6856                 4.6786                 5.7817
 Frc consts  --     0.2298                 0.2421                 0.3106
 IR Inten    --     2.9023                 0.7367                 2.5544
 Raman Activ --     0.1781                 0.7571                 0.3142

                    22                     23                     24
                     A                      A                      A
 Frequencies --   314.2199               323.7785               327.5753
 Red. masses --     5.3947                 6.2119                 5.6644
 Frc consts  --     0.3138                 0.3837                 0.3581
 IR Inten    --    10.5278                 3.2334                 3.4606
 Raman Activ --     0.3954                 3.9896                 2.6554

                    25                     26                     27
                     A                      A                      A
 Frequencies --   354.6641               365.8993               383.5473
 Red. masses --     5.1720                 4.7578                 5.3345
 Frc consts  --     0.3833                 0.3753                 0.4624
 IR Inten    --     9.5682                 1.9681                 2.7739
 Raman Activ --     1.1520                 0.8098                 0.9151

                    28                     29                     30
                     A                      A                      A
 Frequencies --   413.7020               428.5136               433.8071
 Red. masses --     4.5597                 6.6379                 4.8948
 Frc consts  --     0.4598                 0.7181                 0.5427
 IR Inten    --    10.1580                 2.6519                13.5321
 Raman Activ --     8.0191                 5.3934                 2.8373

                    31                     32                     33
                     A                      A                      A
 Frequencies --   448.0725               478.8625               498.8548
 Red. masses --     5.2966                 4.7013                 3.6280
 Frc consts  --     0.6265                 0.6352                 0.5319
 IR Inten    --     2.0220                10.7834                16.3358
 Raman Activ --     1.4486                 0.3905                 0.3109

                    34                     35                     36
                     A                      A                      A
 Frequencies --   505.6304               537.4533               567.7306
 Red. masses --     4.1299                 3.4817                 3.5720
 Frc consts  --     0.6221                 0.5925                 0.6783
 IR Inten    --     1.5844                 5.0092                 9.2283
 Raman Activ --     3.6330                 3.6806                 1.1546

                    37                     38                     39
                     A                      A                      A
 Frequencies --   585.5754               610.7795               624.4461
 Red. masses --     2.7154                 5.9225                 5.2169
 Frc consts  --     0.5486                 1.3017                 1.1985
 IR Inten    --    50.0927                 8.7164                10.7721
 Raman Activ --     0.1728                 0.4618                 0.2709

                    40                     41                     42
                     A                      A                      A
 Frequencies --   631.4362               666.7950               688.5529
 Red. masses --     4.1857                 1.1194                 5.1021
 Frc consts  --     0.9833                 0.2932                 1.4252
 IR Inten    --    19.1679               110.0267                 5.7706
 Raman Activ --     1.2123                 1.5616                 0.7274

                    43                     44                     45
                     A                      A                      A
 Frequencies --   738.6515               771.4987               771.7848
 Red. masses --     1.0582                 1.0992                 1.1063
 Frc consts  --     0.3402                 0.3855                 0.3883
 IR Inten    --    88.3612                71.2547               124.7947
 Raman Activ --     2.0119                 0.9766                 2.4007

                    46                     47                     48
                     A                      A                      A
 Frequencies --   787.0999               841.7489               859.9376
 Red. masses --     1.0579                 1.7889                 1.5505
 Frc consts  --     0.3862                 0.7468                 0.6755
 IR Inten    --    91.6959                 3.2625                 2.4155
 Raman Activ --     0.9164                 0.7771                 0.3915

                    49                     50                     51
                     A                      A                      A
 Frequencies --   905.5763               924.0254               960.8757
 Red. masses --     1.1609                 6.2427                 5.7199
 Frc consts  --     0.5609                 3.1404                 3.1115
 IR Inten    --   103.2054               108.4911               147.3315
 Raman Activ --     0.3817                 2.7887                 1.0571

                    52                     53                     54
                     A                      A                      A
 Frequencies --   977.9336               983.3417               998.7483
 Red. masses --     4.6446                 4.8953                 6.5336
 Frc consts  --     2.6171                 2.7890                 3.8398
 IR Inten    --    37.5481                15.2779                65.8063
 Raman Activ --     2.5841                 1.5621                 2.3156

                    55                     56                     57
                     A                      A                      A
 Frequencies --  1005.3988              1016.2924              1024.3300
 Red. masses --     7.2265                 6.0406                 5.8322
 Frc consts  --     4.3038                 3.6759                 3.6055
 IR Inten    --   481.3434                14.4735               148.5677
 Raman Activ --     1.2558                 2.1220                 2.8604

                    58                     59                     60
                     A                      A                      A
 Frequencies --  1035.5224              1059.1606              1064.1770
 Red. masses --     5.5765                 5.4361                 3.5705
 Frc consts  --     3.5232                 3.5930                 2.3823
 IR Inten    --   160.6177               132.3376                28.3454
 Raman Activ --     2.0015                 5.0306                16.0223

                    61                     62                     63
                     A                      A                      A
 Frequencies --  1068.1742              1073.7123              1081.2213
 Red. masses --     3.8647                 4.9754                 4.6038
 Frc consts  --     2.5981                 3.3795                 3.1710
 IR Inten    --    23.2596               189.8927                31.4866
 Raman Activ --     6.4906                 0.5915                 6.2543

                    64                     65                     66
                     A                      A                      A
 Frequencies --  1095.1897              1102.2628              1106.0024
 Red. masses --     3.5031                 2.4755                 2.6931
 Frc consts  --     2.4756                 1.7721                 1.9410
 IR Inten    --    42.0077                30.2395                11.5343
 Raman Activ --    19.1734                 4.4086                 3.3894

                    67                     68                     69
                     A                      A                      A
 Frequencies --  1115.2340              1123.4161              1129.1764
 Red. masses --     2.4425                 3.0499                 2.3625
 Frc consts  --     1.7898                 2.2679                 1.7748
 IR Inten    --    46.6613                42.3203                76.7145
 Raman Activ --     3.4197                 1.0663                 9.1068

                    70                     71                     72
                     A                      A                      A
 Frequencies --  1143.2719              1145.0985              1150.4469
 Red. masses --     2.0377                 1.8740                 2.3129
 Frc consts  --     1.5693                 1.4478                 1.8036
 IR Inten    --     1.6898                 8.4385                13.7538
 Raman Activ --     4.3902                 4.6329                 3.0364

                    73                     74                     75
                     A                      A                      A
 Frequencies --  1159.3143              1171.5414              1177.8950
 Red. masses --     1.8116                 1.6154                 1.7357
 Frc consts  --     1.4346                 1.3063                 1.4188
 IR Inten    --    12.3134                 3.2264                14.1936
 Raman Activ --     1.5362                 0.9705                 3.5378

                    76                     77                     78
                     A                      A                      A
 Frequencies --  1206.8202              1207.6129              1210.5336
 Red. masses --     1.3754                 1.3609                 1.4160
 Frc consts  --     1.1802                 1.1693                 1.2225
 IR Inten    --    13.2733                11.2018                17.5576
 Raman Activ --     0.6847                 1.1403                 3.3840

                    79                     80                     81
                     A                      A                      A
 Frequencies --  1224.0715              1237.0488              1248.3255
 Red. masses --     1.3128                 1.3580                 1.2893
 Frc consts  --     1.1589                 1.2244                 1.1838
 IR Inten    --     8.3927                 4.6818                 8.0918
 Raman Activ --     0.6581                 0.7952                 1.5820

                    82                     83                     84
                     A                      A                      A
 Frequencies --  1267.4909              1273.6723              1276.7198
 Red. masses --     1.2280                 1.2679                 1.2611
 Frc consts  --     1.1623                 1.2119                 1.2112
 IR Inten    --    11.6760                 9.2182                 6.7202
 Raman Activ --     0.6328                 4.7146                 0.8506

                    85                     86                     87
                     A                      A                      A
 Frequencies --  1287.7554              1293.8826              1301.7820
 Red. masses --     1.2981                 1.3079                 1.1991
 Frc consts  --     1.2683                 1.2900                 1.1972
 IR Inten    --    43.5038                16.1990                 9.6417
 Raman Activ --     1.0584                 4.9473                 7.2971

                    88                     89                     90
                     A                      A                      A
 Frequencies --  1311.6899              1314.3630              1317.3068
 Red. masses --     1.3300                 1.3061                 1.3245
 Frc consts  --     1.3483                 1.3294                 1.3542
 IR Inten    --    14.7889                24.6713                 5.7671
 Raman Activ --     8.8768                 2.4360                10.0812

                    91                     92                     93
                     A                      A                      A
 Frequencies --  1330.7679              1339.5563              1349.0326
 Red. masses --     1.2047                 1.2306                 1.3048
 Frc consts  --     1.2570                 1.3010                 1.3991
 IR Inten    --    26.0008                39.7872                39.9440
 Raman Activ --     2.9050                 3.9294                 2.3647

                    94                     95                     96
                     A                      A                      A
 Frequencies --  1350.7090              1357.7298              1362.6880
 Red. masses --     1.0944                 1.3803                 1.5155
 Frc consts  --     1.1764                 1.4991                 1.6581
 IR Inten    --    49.5961                 5.5839                 5.5209
 Raman Activ --     2.5981                 3.8176                 5.5131

                    97                     98                     99
                     A                      A                      A
 Frequencies --  1372.2155              1393.7781              1395.8486
 Red. masses --     1.5546                 1.4578                 1.4380
 Frc consts  --     1.7247                 1.6686                 1.6507
 IR Inten    --     8.3764                 4.5925                 4.8866
 Raman Activ --     8.0539                 0.8933                 8.4901

                   100                    101                    102
                     A                      A                      A
 Frequencies --  1408.5492              1446.7133              1456.9244
 Red. masses --     1.5838                 1.2834                 1.3107
 Frc consts  --     1.8514                 1.5826                 1.6392
 IR Inten    --    31.0928                23.2053                40.5104
 Raman Activ --     0.5286                 2.2436                 2.3614

                   103                    104                    105
                     A                      A                      A
 Frequencies --  1459.0881              1467.7842              1489.3617
 Red. masses --     1.1739                 1.0803                 1.3183
 Frc consts  --     1.4724                 1.3713                 1.7229
 IR Inten    --    17.1443                 2.6094                52.8458
 Raman Activ --     1.5729                 4.9742                 0.4857

                   106                    107                    108
                     A                      A                      A
 Frequencies --  1490.5965              1515.3993              3199.2907
 Red. masses --     1.3147                 1.2191                 1.0677
 Frc consts  --     1.7210                 1.6494                 6.4388
 IR Inten    --    22.4265                66.2681              1216.1237
 Raman Activ --     3.8875                 1.3965               167.2366

                   109                    110                    111
                     A                      A                      A
 Frequencies --  3250.0119              3260.9402              3267.3313
 Red. masses --     1.0588                 1.0601                 1.0795
 Frc consts  --     6.5892                 6.6416                 6.7899
 IR Inten    --    26.5243                 4.6849                66.9691
 Raman Activ --    95.2033               157.0923                24.3274

                   112                    113                    114
                     A                      A                      A
 Frequencies --  3267.7390              3270.1942              3272.7342
 Red. masses --     1.0800                 1.0813                 1.0827
 Frc consts  --     6.7949                 6.8131                 6.8324
 IR Inten    --    59.1945                14.7546                 6.1510
 Raman Activ --    16.6335                82.8734                11.3715

                   115                    116                    117
                     A                      A                      A
 Frequencies --  3276.1950              3279.3032              3286.2424
 Red. masses --     1.0825                 1.0830                 1.0847
 Frc consts  --     6.8457                 6.8619                 6.9019
 IR Inten    --     7.4168                 6.4918                18.1194
 Raman Activ --   265.9130                27.5185                37.0952

                   118                    119                    120
                     A                      A                      A
 Frequencies --  3290.3111              3292.7017              3298.6157
 Red. masses --     1.0864                 1.0736                 1.0873
 Frc consts  --     6.9296                 6.8580                 6.9705
 IR Inten    --    19.8919               522.6581                55.5670
 Raman Activ --    23.4655               145.4660                25.2913

                   121                    122                    123
                     A                      A                      A
 Frequencies --  3299.5424              3304.3752              3322.4269
 Red. masses --     1.0886                 1.0975                 1.1077
 Frc consts  --     6.9829                 7.0604                 7.2044
 IR Inten    --    89.1489               102.1390                33.1643
 Raman Activ --     8.9294                35.0553                42.3354

                   124                    125                    126
                     A                      A                      A
 Frequencies --  3349.7577              3351.6972              3358.4254
 Red. masses --     1.0650                 1.0661                 1.0694
 Frc consts  --     7.0408                 7.0561                 7.1063
 IR Inten    --    46.0421                26.0487                54.9823
 Raman Activ --    89.3851               160.3028               139.5088

                   127                    128                    129
                     A                      A                      A
 Frequencies --  3362.3016              3877.7218              3878.3511
 Red. masses --     1.0666                 1.0673                 1.0675
 Frc consts  --     7.1046                 9.4559                 9.4603
 IR Inten    --    53.3672                74.3375                76.7212
 Raman Activ --   144.0715               109.8111               107.0803

 - Thermochemistry -
 -------------------
 Temperature   298.150 Kelvin.  Pressure   1.00000 Atm.
 Atom     1 has atomic number  8 and mass  15.99491

 Molecular mass:   342.11621 amu.
 Principal axes and moments of inertia in atomic units:
                           1         2         3
     Eigenvalues --  4359.26082********************
           X            0.99997  -0.00736   0.00031
           Y            0.00735   0.99996   0.00422
           Z           -0.00034  -0.00422   0.99999
 This molecule is an asymmetric top.
 Rotational symmetry number  1.
 Warning -- assumption of classical behavior for rotation
           may cause significant error
 Rotational temperatures (Kelvin)      0.01987     0.00705     0.00532
 Rotational constants (GHZ):           0.41400     0.14680     0.11087
    7 imaginary frequencies ignored.
 Zero-point vibrational energy     974063.8 (Joules/Mol)
                                  232.80684 (Kcal/Mol)
 Warning -- explicit consideration of  31 degrees of freedom as
           vibrations may cause significant error
 Vibrational temperatures:     38.06   101.18   116.09   134.33   163.26
          (Kelvin)            222.66   254.87   269.72   312.93   337.82
                              385.54   415.10   426.42   434.46   452.09
                              465.84   471.31   510.28   526.45   551.84
                              595.22   616.53   624.15   644.68   688.98
                              717.74   727.49   773.27   816.84   842.51
                              878.77   898.44   908.49   959.37   990.67
                             1062.75  1110.01  1110.42  1132.46  1211.09
                             1237.26  1302.92  1329.46  1382.48  1407.03
                             1414.81  1436.97  1446.54  1462.22  1473.78
                             1489.88  1523.89  1531.11  1536.86  1544.83
                             1555.63  1575.73  1585.91  1591.29  1604.57
                             1616.34  1624.63  1644.91  1647.54  1655.23
                             1667.99  1685.58  1694.73  1736.34  1737.48
                             1741.69  1761.16  1779.84  1796.06  1823.63
                             1832.53  1836.91  1852.79  1861.61  1872.97
                             1887.23  1891.07  1895.31  1914.68  1927.32
                             1940.95  1943.37  1953.47  1960.60  1974.31
                             2005.33  2008.31  2026.59  2081.50  2096.19
                             2099.30  2111.81  2142.86  2144.63  2180.32
                             4603.06  4676.04  4691.76  4700.96  4701.54
                             4705.07  4708.73  4713.71  4718.18  4728.16
                             4734.02  4737.46  4745.97  4747.30  4754.25
                             4780.23  4819.55  4822.34  4832.02  4837.60
                             5579.17  5580.08

 Zero-point correction=                           0.371001 (Hartree/Particle)
 Thermal correction to Energy=                    0.389187
 Thermal correction to Enthalpy=                  0.390131
 Thermal correction to Gibbs Free Energy=         0.325256
 Sum of electronic and zero-point Energies=          -1297.644351
 Sum of electronic and thermal Energies=             -1297.626166
 Sum of electronic and thermal Enthalpies=           -1297.625222
 Sum of electronic and thermal Free Energies=        -1297.690097

                     E (Thermal)             CV                S
                      KCal/Mol        Cal/Mol-Kelvin    Cal/Mol-Kelvin
 Total                  244.218             75.495            136.541
 Electronic               0.000              0.000              0.000
 Translational            0.889              2.981             43.384
 Rotational               0.889              2.981             35.122
 Vibrational            242.441             69.534             58.035
 Vibration     1          0.593              1.985              6.079
 Vibration     2          0.598              1.968              4.144
 Vibration     3          0.600              1.962              3.874
 Vibration     4          0.602              1.954              3.588
 Vibration     5          0.607              1.938              3.209
 Vibration     6          0.620              1.897              2.613
 Vibration     7          0.628              1.870              2.358
 Vibration     8          0.632              1.857              2.253
 Vibration     9          0.646              1.814              1.980
 Vibration    10          0.655              1.788              1.842
 Vibration    11          0.673              1.732              1.609
 Vibration    12          0.685              1.695              1.483
 Vibration    13          0.690              1.680              1.437
 Vibration    14          0.694              1.670              1.406
 Vibration    15          0.702              1.647              1.340
 Vibration    16          0.708              1.628              1.291
 Vibration    17          0.711              1.620              1.272
 Vibration    18          0.731              1.566              1.145
 Vibration    19          0.739              1.542              1.097
 Vibration    20          0.753              1.505              1.025
 Vibration    21          0.777              1.440              0.914
 Vibration    22          0.790              1.408              0.864
 Vibration    23          0.795              1.397              0.846
 Vibration    24          0.807              1.365              0.802
 Vibration    25          0.835              1.297              0.713
 Vibration    26          0.854              1.253              0.661
 Vibration    27          0.861              1.238              0.644
 Vibration    28          0.892              1.167              0.571
 Vibration    29          0.924              1.101              0.509
 Vibration    30          0.943              1.063              0.475
 Vibration    31          0.970              1.009              0.431

 Normal termination of Gaussian 09 at Fri Feb  5 12:29:59 2016.
