 Gaussian 09, Revision B.01,
 Gaussian 09:  EM64L-G09RevB.01 12-Aug-2010

 ------------------------------------------------
 # freq=raman b3lyp/6-31+g(d,p) geom=connectivity
 ------------------------------------------------

 -------------
 280 10000.com
 -------------
 Symbolic Z-matrix:
 Charge =  0 Multiplicity = 1

                         Standard orientation:
 ---------------------------------------------------------------------
 Center     Atomic      Atomic             Coordinates (Angstroms)
 Number     Number       Type             X           Y           Z
 ---------------------------------------------------------------------
      1          8           0        4.970641   -0.385638   -0.282612
      2          6           0        3.651133   -0.137246    0.224336
      3          6           0        3.256142    1.250716   -0.253177
      4          8           0        4.227403    2.268396    0.033871
      5          1           0        5.110430    1.948169   -0.309641
      6          6           0        1.823186    1.599515    0.114620
      7          8           0        1.300370    2.775821   -0.518590
      8          1           0        0.389575    2.884812   -0.119932
      9          6           0        3.055314   -2.581535    0.288689
     10          8           0        4.100592   -3.220642   -0.459609
     11          1           0        4.095953   -4.190645   -0.215746
     12          6           0        2.654138   -1.200874   -0.205056
     13          8           0        1.382738   -0.885678    0.382216
     14          6           0        0.949288    0.380762   -0.134720
     15          8           0       -0.263115    0.467864    0.627314
     16          6           0       -1.502487    0.250748   -0.061390
     17          6           0       -2.013466   -1.119103    0.354903
     18          8           0       -1.036165   -2.143781    0.127189
     19          1           0       -0.101401   -1.851361    0.330458
     20          6           0       -3.364775   -1.515941   -0.218254
     21          8           0       -3.908644   -2.753982    0.261990
     22          1           0       -4.766015   -3.052080   -0.156370
     23          6           0       -2.155810    2.613069   -0.086112
     24          8           0       -1.012379    3.252844    0.497379
     25          1           0       -1.138690    4.243189    0.554992
     26          6           0       -2.642210    1.209670    0.241213
     27          8           0       -3.910985    0.897702   -0.352588
     28          6           0       -4.348623   -0.397746    0.083741
     29          8           0       -5.542740   -0.446441   -0.710169
     30          1           0        5.555596   -0.611054    0.444447
     31          1           0        3.695202   -0.127894    1.293387
     32          1           0        3.250841    1.178711   -1.320739
     33          1           0        2.568623   -1.208076   -1.271609
     34          1           0        2.190729   -3.211355    0.261863
     35          1           0        3.376726   -2.493532    1.305473
     36          1           0        0.722304    0.295133   -1.176856
     37          1           0        1.809015    1.783813    1.168534
     38          1           0       -2.984383    3.262416    0.105500
     39          1           0       -1.991601    2.627054   -1.143344
     40          1           0       -2.791438    1.177969    1.300281
     41          1           0       -1.319168    0.249545   -1.115569
     42          1           0       -6.301219   -0.588021   -0.138972
     43          1           0       -4.592119   -0.379485    1.125507
     44          1           0       -3.263133   -1.590854   -1.280778
     45          1           0       -2.148516   -1.070388    1.415227
 ---------------------------------------------------------------------

 SCF Done:  E(RB3LYP) =  -1297.92392829     A.U. after   13 cycles

 The electronic state is 1-A.
 Alpha  occ. eigenvalues --  -19.20654 -19.20175 -19.19468 -19.18758 -19.18437
 Alpha  occ. eigenvalues --  -19.17633 -19.17175 -19.17138 -19.15826 -19.14135
 Alpha  occ. eigenvalues --  -19.13723 -10.31272 -10.31131 -10.26574 -10.26040
 Alpha  occ. eigenvalues --  -10.26039 -10.26004 -10.25668 -10.25460 -10.24761
 Alpha  occ. eigenvalues --  -10.24753 -10.24493 -10.24373  -1.10965  -1.09740
 Alpha  occ. eigenvalues --   -1.06567  -1.05327  -1.04076  -1.03200  -1.02818
 Alpha  occ. eigenvalues --   -1.02397  -1.01670  -1.00284  -0.99723  -0.82770
 Alpha  occ. eigenvalues --   -0.80694  -0.79630  -0.78649  -0.72302  -0.70172
 Alpha  occ. eigenvalues --   -0.67409  -0.65185  -0.63810  -0.62874  -0.61652
 Alpha  occ. eigenvalues --   -0.60372  -0.56717  -0.56369  -0.55712  -0.54790
 Alpha  occ. eigenvalues --   -0.54376  -0.53860  -0.53099  -0.51837  -0.51204
 Alpha  occ. eigenvalues --   -0.50971  -0.50434  -0.49739  -0.48886  -0.47140
 Alpha  occ. eigenvalues --   -0.46381  -0.45259  -0.44454  -0.43836  -0.43095
 Alpha  occ. eigenvalues --   -0.42691  -0.41851  -0.41122  -0.40483  -0.40082
 Alpha  occ. eigenvalues --   -0.39132  -0.37741  -0.37361  -0.36158  -0.35719
 Alpha  occ. eigenvalues --   -0.35181  -0.34574  -0.34198  -0.33845  -0.33372
 Alpha  occ. eigenvalues --   -0.32805  -0.31814  -0.30764  -0.30655  -0.29762
 Alpha  occ. eigenvalues --   -0.29467  -0.28729  -0.28382  -0.27443  -0.27027
 Alpha  occ. eigenvalues --   -0.26036
 Alpha virt. eigenvalues --   -0.02432  -0.01870  -0.01848  -0.00136   0.00149
 Alpha virt. eigenvalues --    0.00870   0.01755   0.02191   0.02846   0.03506
 Alpha virt. eigenvalues --    0.03670   0.04209   0.04737   0.05241   0.05489

 Mulliken atomic charges:
              1
     1  O   -0.532285
     2  C   -0.025730
     3  C    0.060329
     4  O   -0.508063
     5  H    0.364306
     6  C   -0.110453
     7  O   -0.560417
     8  H    0.474390
     9  C    0.051355
    10  O   -0.522391
    11  H    0.353684
    12  C    0.040278
    13  O   -0.394652
    14  C    0.216867
    15  O   -0.332094
    16  C   -0.154002
    17  C    0.041190
    18  O   -0.574316
    19  H    0.433392
    20  C    0.148098
    21  O   -0.525092
    22  H    0.359716
    23  C   -0.143070
    24  O   -0.651387
    25  H    0.408675
    26  C    0.111631
    27  O   -0.296927
    28  C    0.184880
    29  O   -0.550296
    30  H    0.366523
    31  H    0.135851
    32  H    0.130820
    33  H    0.143264
    34  H    0.139823
    35  H    0.127083
    36  H    0.129168
    37  H    0.145466
    38  H    0.134569
    39  H    0.150654
    40  H    0.132321
    41  H    0.127944
    42  H    0.357272
    43  H    0.132261
    44  H    0.146890
    45  H    0.132476
 Sum of Mulliken atomic charges =   0.00000

 Dipole moment (field-independent basis, Debye):
    X=             -2.3607    Y=             -0.2420    Z=              2.5560  Tot=              3.4878
 Quadrupole moment (field-independent basis, Debye-Ang):
   XX=           -117.9681   YY=           -134.4553   ZZ=           -141.0887
   XY=            -16.2195   XZ=              1.9628   YZ=              1.1798

  Exact polarizability: 230.796   2.405 193.262   0.018  -0.692 141.477
 Approx polarizability: 268.115   2.517 248.968  -0.890  -1.796 232.158

 ******    7 imaginary frequencies (negative Signs) ******

                     1                      2                      3
                     A                      A                      A
 Frequencies --  -315.6824              -301.8646              -291.7090
 Red. masses --     1.6582                 1.1570                 1.2572
 Frc consts  --     0.0974                 0.0621                 0.0630
 IR Inten    --     2.6461               108.2709               106.0346
 Raman Activ --     0.0070                 0.9768                 0.5167

                     4                      5                      6
                     A                      A                      A
 Frequencies --  -234.0954               -66.9756               -59.5997
 Red. masses --     1.6166                 7.0332                 5.9249
 Frc consts  --     0.0522                 0.0186                 0.0124
 IR Inten    --    20.2659                 2.1833                 0.2537
 Raman Activ --     0.3274                 0.0317                 0.0208

                     7                      8                      9
                     A                      A                      A
 Frequencies --   -20.6724                45.1044                78.4657
 Red. masses --     6.6021                 6.4669                 6.7743
 Frc consts  --     0.0017                 0.0078                 0.0246
 IR Inten    --     1.1990                 1.0448                 4.1318
 Raman Activ --     0.0372                 0.0232                 0.0822

                    10                     11                     12
                     A                      A                      A
 Frequencies --    90.3977                94.9684               107.9280
 Red. masses --     6.5906                 6.2266                 6.3539
 Frc consts  --     0.0317                 0.0331                 0.0436
 IR Inten    --     1.1841                 0.3855                 2.5189
 Raman Activ --     0.1476                 0.1262                 0.2669

                    13                     14                     15
                     A                      A                      A
 Frequencies --   164.9193               173.8761               186.1857
 Red. masses --     6.4199                 5.5415                 6.9769
 Frc consts  --     0.1029                 0.0987                 0.1425
 IR Inten    --     3.6693                 3.4943                 0.4110
 Raman Activ --     0.3512                 0.4171                 0.6183

                    16                     17                     18
                     A                      A                      A
 Frequencies --   216.8524               239.5514               272.4733
 Red. masses --     7.0738                 6.1196                 4.5231
 Frc consts  --     0.1960                 0.2069                 0.1978
 IR Inten    --     0.5343                 2.0904                14.9212
 Raman Activ --     3.0858                 0.4488                 0.5470

                    19                     20                     21
                     A                      A                      A
 Frequencies --   277.6187               293.4565               298.6865
 Red. masses --     5.6120                 5.1618                 5.7034
 Frc consts  --     0.2548                 0.2619                 0.2998
 IR Inten    --     1.5682                 0.9339                 6.4242
 Raman Activ --     0.2670                 0.0995                 2.1420

                    22                     23                     24
                     A                      A                      A
 Frequencies --   311.6301               314.5695               325.1366
 Red. masses --     4.7321                 5.3849                 6.6492
 Frc consts  --     0.2708                 0.3139                 0.4141
 IR Inten    --    11.1874                 3.9153                 2.1061
 Raman Activ --     0.4354                 1.8086                 3.8813

                    25                     26                     27
                     A                      A                      A
 Frequencies --   349.1150               367.8284               381.0973
 Red. masses --     6.1827                 7.5929                 5.4570
 Frc consts  --     0.4440                 0.6053                 0.4670
 IR Inten    --    11.5043                 0.8255                11.6099
 Raman Activ --     1.5947                 1.7954                 0.3042

                    28                     29                     30
                     A                      A                      A
 Frequencies --   399.9359               424.3522               436.5422
 Red. masses --     4.5848                 4.7808                 5.8701
 Frc consts  --     0.4321                 0.5072                 0.6591
 IR Inten    --    13.7467                 4.5918                 2.5341
 Raman Activ --     2.0921                 7.4513                 2.3755

                    31                     32                     33
                     A                      A                      A
 Frequencies --   442.7758               467.4599               485.5072
 Red. masses --     4.6474                 3.9927                 4.4194
 Frc consts  --     0.5368                 0.5141                 0.6138
 IR Inten    --     4.4898                 7.2743                14.6014
 Raman Activ --     0.5209                 4.6226                 1.5297

                    34                     35                     36
                     A                      A                      A
 Frequencies --   502.2308               523.0006               559.3385
 Red. masses --     4.4505                 3.1969                 3.5816
 Frc consts  --     0.6614                 0.5152                 0.6602
 IR Inten    --    10.2147                12.9322                12.3788
 Raman Activ --     3.4324                 4.3204                 0.9489

                    37                     38                     39
                     A                      A                      A
 Frequencies --   578.6677               590.1065               619.8964
 Red. masses --     2.7419                 6.3164                 4.0457
 Frc consts  --     0.5410                 1.2959                 0.9160
 IR Inten    --    37.6033                 7.6215                 6.9988
 Raman Activ --     1.0056                 0.5354                 0.4263

                    40                     41                     42
                     A                      A                      A
 Frequencies --   641.4870               644.6727               678.7165
 Red. masses --     2.5055                 1.3952                 1.1010
 Frc consts  --     0.6075                 0.3416                 0.2988
 IR Inten    --    88.2672                46.7316               121.2283
 Raman Activ --     1.0909                 1.7147                 1.8247

                    43                     44                     45
                     A                      A                      A
 Frequencies --   696.5384               702.8020               740.4039
 Red. masses --     1.1587                 3.9004                 1.0707
 Frc consts  --     0.3312                 1.1351                 0.3458
 IR Inten    --   119.6570                11.7828               111.8392
 Raman Activ --     1.6527                 3.7865                 1.9495

                    46                     47                     48
                     A                      A                      A
 Frequencies --   777.4426               848.5794               860.1982
 Red. masses --     1.0591                 1.6183                 1.7705
 Frc consts  --     0.3772                 0.6866                 0.7719
 IR Inten    --    97.2204                 8.7211                 2.8759
 Raman Activ --     1.5403                 0.2610                 1.1308

                    49                     50                     51
                     A                      A                      A
 Frequencies --   935.5521               952.8953               965.2394
 Red. masses --     5.7552                 1.2729                 5.8167
 Frc consts  --     2.9679                 0.6810                 3.1930
 IR Inten    --    83.9541                69.3986                96.3726
 Raman Activ --     2.9109                 0.6866                 1.1140

                    52                     53                     54
                     A                      A                      A
 Frequencies --   984.7737               999.4068              1002.1599
 Red. masses --     4.1597                 5.1375                 4.5341
 Frc consts  --     2.3768                 3.0233                 2.6830
 IR Inten    --    16.5965               137.7194                82.6246
 Raman Activ --     2.1339                 0.8046                 0.6772

                    55                     56                     57
                     A                      A                      A
 Frequencies --  1014.0300              1025.5115              1032.1896
 Red. masses --     4.7245                 5.6882                 5.6741
 Frc consts  --     2.8623                 3.5246                 3.5618
 IR Inten    --   284.0456                 9.9372                70.5649
 Raman Activ --     4.9921                 2.2781                 2.6985

                    58                     59                     60
                     A                      A                      A
 Frequencies --  1047.4902              1060.3434              1070.5267
 Red. masses --     4.4547                 4.1161                 3.7151
 Frc consts  --     2.8799                 2.7266                 2.5085
 IR Inten    --   398.6022                79.5662               102.3765
 Raman Activ --     2.0066                 7.9746                 2.5445

                    61                     62                     63
                     A                      A                      A
 Frequencies --  1076.5340              1084.7533              1093.7986
 Red. masses --     3.7834                 2.9798                 5.0720
 Frc consts  --     2.5834                 2.0658                 3.5753
 IR Inten    --    26.2187                41.0463                57.5143
 Raman Activ --     3.7512                 6.8033                 0.6706

                    64                     65                     66
                     A                      A                      A
 Frequencies --  1109.5466              1113.5363              1123.0104
 Red. masses --     2.7636                 2.3920                 2.7193
 Frc consts  --     2.0045                 1.7475                 2.0206
 IR Inten    --    78.5132                45.0674                78.7237
 Raman Activ --    10.6753                17.1839                 2.3205

                    67                     68                     69
                     A                      A                      A
 Frequencies --  1125.0397              1127.5093              1139.5298
 Red. masses --     2.5626                 2.9496                 2.2051
 Frc consts  --     1.9110                 2.2093                 1.6871
 IR Inten    --    25.6579                 5.8610                 5.9833
 Raman Activ --     7.5912                 6.2253                 5.2415

                    70                     71                     72
                     A                      A                      A
 Frequencies --  1149.8574              1157.9394              1166.8254
 Red. masses --     2.5148                 1.8246                 2.0919
 Frc consts  --     1.9590                 1.4414                 1.6781
 IR Inten    --    37.1123                17.1748                17.1221
 Raman Activ --     2.9554                 1.8373                 5.2529

                    73                     74                     75
                     A                      A                      A
 Frequencies --  1168.9614              1175.5195              1189.2427
 Red. masses --     1.8187                 2.1829                 2.2487
 Frc consts  --     1.4642                 1.7772                 1.8738
 IR Inten    --     2.8081                 2.5531                 4.8630
 Raman Activ --     1.3453                 6.8940                 1.5255

                    76                     77                     78
                     A                      A                      A
 Frequencies --  1203.9798              1211.2645              1237.9862
 Red. masses --     1.3488                 1.5533                 1.2356
 Frc consts  --     1.1520                 1.3427                 1.1158
 IR Inten    --    12.7675                21.7811                 2.8363
 Raman Activ --     4.0256                 3.7379                 1.7301

                    79                     80                     81
                     A                      A                      A
 Frequencies --  1239.1468              1247.2283              1250.9091
 Red. masses --     1.2631                 1.2815                 1.3412
 Frc consts  --     1.1427                 1.1745                 1.2365
 IR Inten    --    22.6040                20.9860                29.4746
 Raman Activ --     2.1194                 0.9853                 1.8430

                    82                     83                     84
                     A                      A                      A
 Frequencies --  1279.7823              1287.2286              1291.3621
 Red. masses --     1.1818                 1.2715                 1.3778
 Frc consts  --     1.1404                 1.2413                 1.3537
 IR Inten    --     5.9959                10.1212                18.0447
 Raman Activ --     3.3666                 1.4308                 2.8358

                    85                     86                     87
                     A                      A                      A
 Frequencies --  1298.9476              1305.5989              1312.5895
 Red. masses --     1.2593                 1.2731                 1.2428
 Frc consts  --     1.2519                 1.2786                 1.2615
 IR Inten    --    13.4837                 7.2834                14.4748
 Raman Activ --     1.5842                 3.2252                 5.5696

                    88                     89                     90
                     A                      A                      A
 Frequencies --  1314.7997              1332.4450              1335.0336
 Red. masses --     1.3247                 1.2300                 1.2288
 Frc consts  --     1.3492                 1.2867                 1.2903
 IR Inten    --    46.4955                54.3480                12.7237
 Raman Activ --     3.2647                 5.5031                 2.7523

                    91                     92                     93
                     A                      A                      A
 Frequencies --  1341.0799              1348.3589              1356.0079
 Red. masses --     1.2679                 1.2357                 1.4048
 Frc consts  --     1.3435                 1.3237                 1.5219
 IR Inten    --    26.1466                 9.2059                13.1578
 Raman Activ --     7.4277                 9.4734                 3.0847

                    94                     95                     96
                     A                      A                      A
 Frequencies --  1367.9499              1372.9253              1376.9138
 Red. masses --     1.3144                 1.2902                 1.5177
 Frc consts  --     1.4492                 1.4329                 1.6953
 IR Inten    --     6.3599                 8.1288                50.2942
 Raman Activ --     2.6364                 2.3526                 6.7282

                    97                     98                     99
                     A                      A                      A
 Frequencies --  1378.1898              1385.0199              1387.6074
 Red. masses --     1.2223                 1.5015                 1.6215
 Frc consts  --     1.3679                 1.6970                 1.8395
 IR Inten    --    19.3462                10.3726                17.7735
 Raman Activ --    11.0478                 6.4678                 2.9118

                   100                    101                    102
                     A                      A                      A
 Frequencies --  1404.2509              1435.0828              1451.3594
 Red. masses --     1.5196                 1.4396                 1.3620
 Frc consts  --     1.7655                 1.7468                 1.6904
 IR Inten    --     3.0330                24.8654                24.8715
 Raman Activ --     8.0843                 2.1010                 1.1305

                   103                    104                    105
                     A                      A                      A
 Frequencies --  1456.8406              1461.9181              1480.2763
 Red. masses --     1.4188                 1.3478                 1.0821
 Frc consts  --     1.7742                 1.6971                 1.3970
 IR Inten    --    22.3151                11.1240                 4.8540
 Raman Activ --     2.9896                 1.8794                 4.9369

                   106                    107                    108
                     A                      A                      A
 Frequencies --  1483.5495              1536.8079              3217.9076
 Red. masses --     1.1040                 1.2125                 1.0689
 Frc consts  --     1.4317                 1.6872                 6.5210
 IR Inten    --     2.2693                39.3733              1132.3308
 Raman Activ --     4.1645                 0.8846               161.2161

                   109                    110                    111
                     A                      A                      A
 Frequencies --  3265.8196              3268.5634              3270.5514
 Red. masses --     1.0582                 1.0708                 1.0804
 Frc consts  --     6.6494                 6.7399                 6.8087
 IR Inten    --    33.3973                21.4435                30.7249
 Raman Activ --    54.1900               114.8271               125.3033

                   112                    113                    114
                     A                      A                      A
 Frequencies --  3271.7018              3277.0798              3290.0555
 Red. masses --     1.0712                 1.0803                 1.0835
 Frc consts  --     6.7555                 6.8353                 6.9099
 IR Inten    --    26.1474                47.8157                 5.7587
 Raman Activ --    86.8533               105.5190                 3.8651

                   115                    116                    117
                     A                      A                      A
 Frequencies --  3294.9636              3295.9337              3298.7799
 Red. masses --     1.0837                 1.0835                 1.0859
 Frc consts  --     6.9323                 6.9348                 6.9621
 IR Inten    --    42.6080                32.9217                 7.0926
 Raman Activ --   155.1055                14.4141                85.0544

                   118                    119                    120
                     A                      A                      A
 Frequencies --  3304.4119              3306.9671              3311.2621
 Red. masses --     1.0865                 1.0778                 1.0873
 Frc consts  --     6.9900                 6.9446                 7.0240
 IR Inten    --     2.9749               539.7943                37.9731
 Raman Activ --    10.4124                80.2529                17.9863

                   121                    122                    123
                     A                      A                      A
 Frequencies --  3315.6786              3321.1476              3324.9443
 Red. masses --     1.0828                 1.1026                 1.1051
 Frc consts  --     7.0136                 7.1653                 7.1984
 IR Inten    --   299.2136                66.5131                76.2517
 Raman Activ --    99.4766                39.5776                36.4932

                   124                    125                    126
                     A                      A                      A
 Frequencies --  3387.7236              3391.9579              3397.9077
 Red. masses --     1.0674                 1.0654                 1.0680
 Frc consts  --     7.2173                 7.2224                 7.2651
 IR Inten    --    36.1296                47.0698               127.2560
 Raman Activ --   161.2878               115.7784                83.1521

                   127                    128                    129
                     A                      A                      A
 Frequencies --  3398.3318              3918.9844              3920.7104
 Red. masses --     1.0678                 1.0677                 1.0676
 Frc consts  --     7.2653                 9.6619                 9.6688
 IR Inten    --    12.2507                71.6185                60.0907
 Raman Activ --   246.4811                85.6327               133.1215

 - Thermochemistry -
 -------------------
 Temperature   298.150 Kelvin.  Pressure   1.00000 Atm.
 Atom     1 has atomic number  8 and mass  15.99491

 Molecular mass:   342.11621 amu.
 Principal axes and moments of inertia in atomic units:
                           1         2         3
     Eigenvalues --  4391.48260********************
           X            0.99997  -0.00760   0.00006
           Y            0.00760   0.99997  -0.00167
           Z           -0.00004   0.00167   1.00000
 This molecule is an asymmetric top.
 Rotational symmetry number  1.
 Warning -- assumption of classical behavior for rotation
           may cause significant error
 Rotational temperatures (Kelvin)      0.01972     0.00704     0.00532
 Rotational constants (GHZ):           0.41096     0.14677     0.11094
    7 imaginary frequencies ignored.
 Zero-point vibrational energy     978103.0 (Joules/Mol)
                                  233.77224 (Kcal/Mol)
 Warning -- explicit consideration of  32 degrees of freedom as
           vibrations may cause significant error
 Vibrational temperatures:     64.90   112.89   130.06   136.64   155.28
          (Kelvin)            237.28   250.17   267.88   312.00   344.66
                              392.03   399.43   422.22   429.74   448.37
                              452.59   467.80   502.30   529.22   548.31
                              575.42   610.55   628.09   637.05   672.57
                              698.54   722.60   752.48   804.76   832.57
                              849.03   891.89   922.96   927.54   976.52
                             1002.16  1011.17  1065.27  1118.57  1220.91
                             1237.63  1346.05  1371.00  1388.76  1416.87
                             1437.92  1441.88  1458.96  1475.48  1485.09
                             1507.10  1525.60  1540.25  1548.89  1560.72
                             1573.73  1596.39  1602.13  1615.76  1618.68
                             1622.23  1639.53  1654.39  1666.01  1678.80
                             1681.87  1691.31  1711.05  1732.26  1742.74
                             1781.18  1782.85  1794.48  1799.78  1841.32
                             1852.03  1857.98  1868.89  1878.46  1888.52
                             1891.70  1917.09  1920.81  1929.51  1939.99
                             1950.99  1968.17  1975.33  1981.07  1982.91
                             1992.73  1996.46  2020.40  2064.76  2088.18
                             2096.07  2103.37  2129.78  2134.49  2211.12
                             4629.85  4698.78  4702.73  4705.59  4707.24
                             4714.98  4733.65  4740.71  4742.11  4746.20
                             4754.31  4757.98  4764.16  4770.52  4778.38
                             4783.85  4874.17  4880.26  4888.83  4889.44
                             5638.54  5641.02

 Zero-point correction=                           0.372540 (Hartree/Particle)
 Thermal correction to Energy=                    0.390770
 Thermal correction to Enthalpy=                  0.391714
 Thermal correction to Gibbs Free Energy=         0.327337
 Sum of electronic and zero-point Energies=          -1297.551389
 Sum of electronic and thermal Energies=             -1297.533158
 Sum of electronic and thermal Enthalpies=           -1297.532214
 Sum of electronic and thermal Free Energies=        -1297.596592

                     E (Thermal)             CV                S
                      KCal/Mol        Cal/Mol-Kelvin    Cal/Mol-Kelvin
 Total                  245.212             75.677            135.494
 Electronic               0.000              0.000              0.000
 Translational            0.889              2.981             43.384
 Rotational               0.889              2.981             35.128
 Vibrational            243.435             69.715             56.981
 Vibration     1          0.595              1.979              5.021
 Vibration     2          0.600              1.964              3.929
 Vibration     3          0.602              1.956              3.651
 Vibration     4          0.603              1.953              3.555
 Vibration     5          0.606              1.943              3.306
 Vibration     6          0.623              1.886              2.493
 Vibration     7          0.627              1.875              2.393
 Vibration     8          0.632              1.859              2.265
 Vibration     9          0.646              1.815              1.985
 Vibration    10          0.657              1.780              1.806
 Vibration    11          0.675              1.724              1.580
 Vibration    12          0.679              1.715              1.548
 Vibration    13          0.688              1.686              1.454
 Vibration    14          0.692              1.676              1.424
 Vibration    15          0.700              1.652              1.354
 Vibration    16          0.702              1.646              1.338
 Vibration    17          0.709              1.625              1.284
 Vibration    18          0.726              1.577              1.170
 Vibration    19          0.740              1.538              1.089
 Vibration    20          0.751              1.510              1.035
 Vibration    21          0.766              1.470              0.963
 Vibration    22          0.786              1.417              0.877
 Vibration    23          0.797              1.391              0.838
 Vibration    24          0.802              1.377              0.818
 Vibration    25          0.825              1.322              0.745
 Vibration    26          0.842              1.282              0.695
 Vibration    27          0.858              1.245              0.653
 Vibration    28          0.878              1.199              0.603
 Vibration    29          0.915              1.119              0.525
 Vibration    30          0.935              1.077              0.488
 Vibration    31          0.947              1.053              0.467
 Vibration    32          0.980              0.990              0.417

 Normal termination of Gaussian 09 at Thu Jan 21 04:54:50 2016.
