 Gaussian 09, Revision B.01,
 Gaussian 09:  EM64L-G09RevB.01 12-Aug-2010

 ------------------------------------------------
 # freq=raman b3lyp/6-31+g(d,p) geom=connectivity
 ------------------------------------------------

 ------------
 300 8000.com
 ------------
 Symbolic Z-matrix:
 Charge =  0 Multiplicity = 1

                         Standard orientation:
 ---------------------------------------------------------------------
 Center     Atomic      Atomic             Coordinates (Angstroms)
 Number     Number       Type             X           Y           Z
 ---------------------------------------------------------------------
      1          8           0       -5.150741   -0.389202    0.220652
      2          6           0       -3.792429   -0.100470   -0.143807
      3          6           0       -3.289298    1.255129    0.324184
      4          8           0       -4.134816    2.261944   -0.251804
      5          1           0       -5.068912    2.022763    0.013491
      6          6           0       -1.850138    1.542169   -0.067875
      7          8           0       -1.314883    2.733268    0.526299
      8          1           0       -0.491525    2.962867    0.006738
      9          6           0       -2.988719   -2.567205   -0.120645
     10          8           0       -4.175134   -3.321931    0.163534
     11          1           0       -3.979692   -4.298412    0.073781
     12          6           0       -2.780573   -1.130766    0.330327
     13          8           0       -1.473790   -0.815032   -0.173794
     14          6           0       -0.880620    0.417208    0.258916
     15          8           0        0.325007    0.524194   -0.512013
     16          6           0        1.576807    0.185387    0.103626
     17          6           0        2.026813   -1.167570   -0.423872
     18          8           0        0.973860   -2.119075   -0.217948
     19          1           0        0.138729   -1.596099   -0.387467
     20          6           0        3.377154   -1.547035    0.162264
     21          8           0        3.939002   -2.806401   -0.233832
     22          1           0        4.904750   -2.976920   -0.037811
     23          6           0        2.315937    2.689736    0.057950
     24          8           0        1.135833    3.390406   -0.363089
     25          1           0        1.296194    4.361130   -0.540269
     26          6           0        2.577427    1.244154   -0.330541
     27          8           0        3.878241    0.882420    0.156712
     28          6           0        4.386707   -0.437575   -0.085515
     29          8           0        5.523730   -0.602272    0.774867
     30          1           0        6.302977   -0.783397    0.244237
     31          1           0       -5.663769   -0.566396   -0.571185
     32          1           0       -3.754783   -0.095178   -1.213131
     33          1           0       -3.371808    1.303716    1.389891
     34          1           0       -1.833261    1.679556   -1.128883
     35          1           0       -0.664015    0.389265    1.306390
     36          1           0       -2.749604   -1.109936    1.399676
     37          1           0       -2.170818   -3.129875    0.278530
     38          1           0       -2.878939   -2.567789   -1.184998
     39          1           0        1.482814    0.165985    1.169313
     40          1           0        2.159594   -1.068267   -1.480947
     41          1           0        2.619682    1.212011   -1.399223
     42          1           0        3.152274    3.258214   -0.291727
     43          1           0        4.715172   -0.496032   -1.102173
     44          1           0        3.238552   -1.601173    1.221867
     45          1           0        2.331500    2.728434    1.127137
 ---------------------------------------------------------------------

 SCF Done:  E(RB3LYP) =  -1297.93943426     A.U. after   13 cycles

 The electronic state is 1-A.
 Alpha  occ. eigenvalues --  -19.19954 -19.19574 -19.19241 -19.19133 -19.18695
 Alpha  occ. eigenvalues --  -19.17925 -19.16962 -19.16596 -19.15973 -19.14637
 Alpha  occ. eigenvalues --  -19.14089 -10.31629 -10.31207 -10.26904 -10.26452
 Alpha  occ. eigenvalues --  -10.26141 -10.26094 -10.25620 -10.25389 -10.24962
 Alpha  occ. eigenvalues --  -10.24821 -10.24606 -10.24015  -1.10302  -1.09031
 Alpha  occ. eigenvalues --   -1.05662  -1.05313  -1.04369  -1.03607  -1.02568
 Alpha  occ. eigenvalues --   -1.02277  -1.02047  -1.00825  -1.00180  -0.82675
 Alpha  occ. eigenvalues --   -0.80314  -0.80044  -0.78464  -0.72496  -0.70148
 Alpha  occ. eigenvalues --   -0.67706  -0.64936  -0.63713  -0.62612  -0.61611
 Alpha  occ. eigenvalues --   -0.60146  -0.56596  -0.56204  -0.55545  -0.55393
 Alpha  occ. eigenvalues --   -0.54183  -0.53497  -0.52982  -0.51886  -0.51558
 Alpha  occ. eigenvalues --   -0.50988  -0.50572  -0.49211  -0.48677  -0.47134
 Alpha  occ. eigenvalues --   -0.46553  -0.45066  -0.44568  -0.43794  -0.43527
 Alpha  occ. eigenvalues --   -0.42612  -0.42253  -0.41686  -0.40623  -0.38924
 Alpha  occ. eigenvalues --   -0.38588  -0.37748  -0.37615  -0.35968  -0.35615
 Alpha  occ. eigenvalues --   -0.34817  -0.34427  -0.34198  -0.34023  -0.33525
 Alpha  occ. eigenvalues --   -0.33077  -0.31745  -0.31079  -0.30770  -0.29852
 Alpha  occ. eigenvalues --   -0.29613  -0.28272  -0.28078  -0.27572  -0.26823
 Alpha  occ. eigenvalues --   -0.26364
 Alpha virt. eigenvalues --   -0.02413  -0.02341  -0.01692  -0.00107   0.00244
 Alpha virt. eigenvalues --    0.00944   0.02057   0.02247   0.03016   0.03578
 Alpha virt. eigenvalues --    0.03817   0.04236   0.04615   0.05339   0.05713

 Mulliken atomic charges:
              1
     1  O   -0.535410
     2  C   -0.233289
     3  C    0.189479
     4  O   -0.504813
     5  H    0.355980
     6  C   -0.135594
     7  O   -0.533309
     8  H    0.441690
     9  C   -0.099861
    10  O   -0.549252
    11  H    0.359051
    12  C    0.347402
    13  O   -0.397241
    14  C    0.175834
    15  O   -0.350075
    16  C   -0.233582
    17  C    0.230979
    18  O   -0.524624
    19  H    0.422472
    20  C    0.055723
    21  O   -0.528361
    22  H    0.354748
    23  C   -0.146677
    24  O   -0.647602
    25  H    0.401646
    26  C    0.093512
    27  O   -0.318093
    28  C    0.195970
    29  O   -0.537095
    30  H    0.361948
    31  H    0.373151
    32  H    0.132481
    33  H    0.139010
    34  H    0.148989
    35  H    0.127366
    36  H    0.128788
    37  H    0.143182
    38  H    0.135308
    39  H    0.137288
    40  H    0.128527
    41  H    0.133411
    42  H    0.138056
    43  H    0.126046
    44  H    0.143954
    45  H    0.152890
 Sum of Mulliken atomic charges =   0.00000

 Dipole moment (field-independent basis, Debye):
    X=              3.3521    Y=              0.7165    Z=             -2.3210  Tot=              4.1397
 Quadrupole moment (field-independent basis, Debye-Ang):
   XX=           -118.5620   YY=           -136.0398   ZZ=           -139.1740
   XY=             11.6432   XZ=             -1.3723   YZ=             -2.8661

  Exact polarizability: 230.943  -2.178 193.635   1.030  -0.061 141.313
 Approx polarizability: 267.919  -1.484 247.597   0.603  -1.112 229.249

 ******    7 imaginary frequencies (negative Signs) ******

                     1                      2                      3
                     A                      A                      A
 Frequencies --  -310.4843              -290.4374              -278.5409
 Red. masses --     1.6411                 1.6997                 1.1983
 Frc consts  --     0.0932                 0.0845                 0.0548
 IR Inten    --    19.2206                 2.4509               103.9859
 Raman Activ --     0.1327                 0.0165                 1.1988

                     4                      5                      6
                     A                      A                      A
 Frequencies --  -273.1690               -81.0539               -60.8627
 Red. masses --     1.1844                 7.4350                 6.8054
 Frc consts  --     0.0521                 0.0288                 0.0149
 IR Inten    --   113.9711                 1.1363                 0.4918
 Raman Activ --     0.7945                 0.0326                 0.0397

                     7                      8                      9
                     A                      A                      A
 Frequencies --   -31.4627                31.1320                42.6248
 Red. masses --     6.8684                 6.4984                 6.6734
 Frc consts  --     0.0040                 0.0037                 0.0071
 IR Inten    --     0.3658                 1.1759                 0.7472
 Raman Activ --     0.0373                 0.0245                 0.0982

                    10                     11                     12
                     A                      A                      A
 Frequencies --    75.9606                79.9871                88.5209
 Red. masses --     6.0846                 6.4565                 6.6893
 Frc consts  --     0.0207                 0.0243                 0.0309
 IR Inten    --     3.1445                 1.5083                 1.3304
 Raman Activ --     0.1769                 0.0461                 0.1666

                    13                     14                     15
                     A                      A                      A
 Frequencies --   143.7200               161.7839               177.4247
 Red. masses --     5.8810                 6.2914                 7.8671
 Frc consts  --     0.0716                 0.0970                 0.1459
 IR Inten    --     7.4813                 1.4343                 0.4621
 Raman Activ --     0.1432                 0.2573                 1.3567

                    16                     17                     18
                     A                      A                      A
 Frequencies --   208.5372               233.8704               256.2469
 Red. masses --     6.8957                 5.5886                 4.3999
 Frc consts  --     0.1767                 0.1801                 0.1702
 IR Inten    --     0.2111                 2.9548                21.8902
 Raman Activ --     2.4909                 0.2146                 0.2559

                    19                     20                     21
                     A                      A                      A
 Frequencies --   266.5790               285.0935               297.0070
 Red. masses --     4.8092                 4.8709                 4.2093
 Frc consts  --     0.2014                 0.2333                 0.2188
 IR Inten    --     2.1464                 3.2145                 7.2193
 Raman Activ --     0.1543                 0.1759                 0.2054

                    22                     23                     24
                     A                      A                      A
 Frequencies --   306.1135               310.4619               324.9835
 Red. masses --     6.5717                 4.7399                 6.3277
 Frc consts  --     0.3628                 0.2692                 0.3938
 IR Inten    --     6.1239                 6.8028                 3.7787
 Raman Activ --     2.9148                 1.3818                 3.8530

                    25                     26                     27
                     A                      A                      A
 Frequencies --   337.8882               351.0535               379.6104
 Red. masses --     6.4390                 6.0680                 6.6906
 Frc consts  --     0.4331                 0.4406                 0.5681
 IR Inten    --    11.2262                 6.9590                 1.2455
 Raman Activ --     3.3394                 0.4021                 1.3273

                    28                     29                     30
                     A                      A                      A
 Frequencies --   394.3254               410.2580               428.0284
 Red. masses --     4.0455                 6.5707                 4.7827
 Frc consts  --     0.3706                 0.6516                 0.5163
 IR Inten    --    23.7627                 2.8779                 2.3460
 Raman Activ --     2.4829                 8.2678                 1.7179

                    31                     32                     33
                     A                      A                      A
 Frequencies --   431.1531               466.5392               478.8979
 Red. masses --     5.5917                 4.4409                 3.6938
 Frc consts  --     0.6124                 0.5695                 0.4991
 IR Inten    --     3.5899                 9.8458                 7.7083
 Raman Activ --     1.6895                 0.6175                 1.9355

                    34                     35                     36
                     A                      A                      A
 Frequencies --   505.1295               522.5972               563.2850
 Red. masses --     4.4585                 3.2966                 3.8338
 Frc consts  --     0.6703                 0.5305                 0.7167
 IR Inten    --     4.0508                13.0095                19.3343
 Raman Activ --     3.2911                 4.2698                 1.8272

                    37                     38                     39
                     A                      A                      A
 Frequencies --   574.2844               580.8124               603.0184
 Red. masses --     2.2804                 2.5955                 5.1251
 Frc consts  --     0.4431                 0.5159                 1.0980
 IR Inten    --    58.5909                16.2602                37.5704
 Raman Activ --     0.4456                 0.7241                 1.0667

                    40                     41                     42
                     A                      A                      A
 Frequencies --   606.0748               623.6311               631.2430
 Red. masses --     1.5006                 1.3134                 2.7740
 Frc consts  --     0.3248                 0.3009                 0.6513
 IR Inten    --    53.3558                62.3398                58.0774
 Raman Activ --     3.1961                 1.7457                 1.0812

                    43                     44                     45
                     A                      A                      A
 Frequencies --   664.0830               679.0688               748.9276
 Red. masses --     1.0897                 4.8698                 1.0759
 Frc consts  --     0.2832                 1.3231                 0.3555
 IR Inten    --   128.8546                 5.6672               109.8974
 Raman Activ --     1.7599                 0.7152                 1.9397

                    46                     47                     48
                     A                      A                      A
 Frequencies --   811.0369               831.1219               843.6347
 Red. masses --     1.1169                 1.2511                 1.7888
 Frc consts  --     0.4329                 0.5092                 0.7501
 IR Inten    --    81.4885                54.2468                 3.6866
 Raman Activ --     1.7236                 1.6323                 0.7095

                    49                     50                     51
                     A                      A                      A
 Frequencies --   867.7557               923.6552               953.2079
 Red. masses --     1.4015                 4.7737                 4.7525
 Frc consts  --     0.6218                 2.3995                 2.5442
 IR Inten    --    37.1329               109.0335                56.1334
 Raman Activ --     0.9337                 2.5317                 0.4941

                    52                     53                     54
                     A                      A                      A
 Frequencies --   970.8988               986.9017               995.5796
 Red. masses --     5.2873                 4.8804                 5.7170
 Frc consts  --     2.9365                 2.8006                 3.3387
 IR Inten    --    80.0151                22.5427               135.2653
 Raman Activ --     2.3004                 1.5183                 1.6066

                    55                     56                     57
                     A                      A                      A
 Frequencies --  1010.0714              1023.5261              1030.6153
 Red. masses --     5.7132                 5.8075                 5.5930
 Frc consts  --     3.4343                 3.5846                 3.5002
 IR Inten    --   316.4064                37.4961                83.4395
 Raman Activ --     2.3032                 1.1087                 4.3210

                    58                     59                     60
                     A                      A                      A
 Frequencies --  1050.5248              1058.4846              1070.8971
 Red. masses --     4.5581                 4.1405                 3.0435
 Frc consts  --     2.9638                 2.7332                 2.0564
 IR Inten    --   530.7209               152.9437                40.6527
 Raman Activ --     1.7991                 3.8512                 4.7728

                    61                     62                     63
                     A                      A                      A
 Frequencies --  1077.0755              1088.6523              1091.0959
 Red. masses --     4.0444                 5.0748                 5.2417
 Frc consts  --     2.7644                 3.5436                 3.6766
 IR Inten    --    11.8380                28.3149               119.4850
 Raman Activ --    10.3114                 5.6243                 0.7072

                    64                     65                     66
                     A                      A                      A
 Frequencies --  1105.4985              1111.0402              1115.1682
 Red. masses --     3.0347                 2.5410                 2.5605
 Frc consts  --     2.1852                 1.8481                 1.8761
 IR Inten    --    79.6042                12.7373               100.0980
 Raman Activ --    19.3815                 2.4420                 6.9603

                    67                     68                     69
                     A                      A                      A
 Frequencies --  1119.0091              1130.3939              1139.9544
 Red. masses --     3.1325                 2.3350                 2.3728
 Frc consts  --     2.3110                 1.7579                 1.8167
 IR Inten    --    12.6412                71.0139                83.3215
 Raman Activ --    10.0782                 2.3991                 5.3516

                    70                     71                     72
                     A                      A                      A
 Frequencies --  1146.1553              1157.7452              1161.4954
 Red. masses --     2.9565                 2.2141                 2.0523
 Frc consts  --     2.2883                 1.7485                 1.6313
 IR Inten    --    24.2531                 6.3696                14.0805
 Raman Activ --     6.2491                 2.8712                 3.6195

                    73                     74                     75
                     A                      A                      A
 Frequencies --  1165.9903              1187.7577              1190.3118
 Red. masses --     1.7998                 1.6041                 1.9150
 Frc consts  --     1.4417                 1.3333                 1.5986
 IR Inten    --    21.7297                 1.0390                21.8522
 Raman Activ --     2.1208                 1.0720                 2.9221

                    76                     77                     78
                     A                      A                      A
 Frequencies --  1214.2204              1216.7490              1232.8983
 Red. masses --     1.4569                 1.3017                 1.3273
 Frc consts  --     1.2656                 1.1354                 1.1887
 IR Inten    --     8.6836                 9.9472                 9.1031
 Raman Activ --     2.0445                 1.6941                 3.4908

                    79                     80                     81
                     A                      A                      A
 Frequencies --  1241.2934              1254.0946              1263.3724
 Red. masses --     1.2288                 1.3408                 1.2098
 Frc consts  --     1.1156                 1.2424                 1.1377
 IR Inten    --     0.4069                38.8117                 9.6852
 Raman Activ --     1.6081                 3.7520                 1.3156

                    82                     83                     84
                     A                      A                      A
 Frequencies --  1267.7208              1278.6486              1289.4045
 Red. masses --     1.2223                 1.3812                 1.2152
 Frc consts  --     1.1574                 1.3305                 1.1904
 IR Inten    --    29.8486                 9.6858                11.8263
 Raman Activ --     1.5369                 3.1038                 3.5594

                    85                     86                     87
                     A                      A                      A
 Frequencies --  1295.1050              1298.5788              1309.7347
 Red. masses --     1.2117                 1.3537                 1.3591
 Frc consts  --     1.1974                 1.3450                 1.3737
 IR Inten    --     5.4488                 2.8253                46.1029
 Raman Activ --     4.2882                 3.9438                 0.7120

                    88                     89                     90
                     A                      A                      A
 Frequencies --  1317.3058              1320.9765              1328.2332
 Red. masses --     1.2195                 1.3421                 1.4081
 Frc consts  --     1.2468                 1.3799                 1.4637
 IR Inten    --     0.8346                16.0160                 5.2349
 Raman Activ --     5.6879                 9.3142                 3.7943

                    91                     92                     93
                     A                      A                      A
 Frequencies --  1337.5084              1339.9680              1343.9069
 Red. masses --     1.2053                 1.2996                 1.1367
 Frc consts  --     1.2704                 1.3748                 1.2096
 IR Inten    --    14.1774                48.6212                35.0086
 Raman Activ --     7.6306                 4.6789                 3.2510

                    94                     95                     96
                     A                      A                      A
 Frequencies --  1362.3544              1371.8690              1377.3608
 Red. masses --     1.1849                 1.4077                 1.2941
 Frc consts  --     1.2957                 1.5609                 1.4465
 IR Inten    --    46.4634                 2.3677                 2.0080
 Raman Activ --     2.1427                11.2057                 5.6989

                    97                     98                     99
                     A                      A                      A
 Frequencies --  1385.9894              1389.0929              1403.2475
 Red. masses --     1.5328                 1.5376                 1.6275
 Frc consts  --     1.7348                 1.7481                 1.8882
 IR Inten    --    13.0178                25.6089                19.0363
 Raman Activ --     4.6193                 3.7822                 5.8056

                   100                    101                    102
                     A                      A                      A
 Frequencies --  1408.6916              1438.3831              1446.2256
 Red. masses --     1.4258                 1.3838                 1.4319
 Frc consts  --     1.6670                 1.6869                 1.7646
 IR Inten    --     4.3315                51.5282                 8.4410
 Raman Activ --     4.1628                 1.2679                 0.1709

                   103                    104                    105
                     A                      A                      A
 Frequencies --  1460.3694              1476.0170              1479.9055
 Red. masses --     1.3697                 1.0881                 1.1074
 Frc consts  --     1.7211                 1.3967                 1.4290
 IR Inten    --     9.0023                 2.6327                 2.2253
 Raman Activ --     2.0395                 5.0424                 3.9754

                   106                    107                    108
                     A                      A                      A
 Frequencies --  1492.1862              1496.8827              3266.6193
 Red. masses --     1.2912                 1.3046                 1.0587
 Frc consts  --     1.6940                 1.7223                 6.6563
 IR Inten    --    20.7591                95.7504                27.9078
 Raman Activ --     2.7746                 2.3425                80.9492

                   109                    110                    111
                     A                      A                      A
 Frequencies --  3272.4959              3276.0702              3284.2666
 Red. masses --     1.0655                 1.0763                 1.0831
 Frc consts  --     6.7227                 6.8061                 6.8832
 IR Inten    --    71.1977                81.4129                 5.8779
 Raman Activ --    23.8115                82.3036                 8.7954

                   112                    113                    114
                     A                      A                      A
 Frequencies --  3284.5153              3284.8657              3287.2478
 Red. masses --     1.0835                 1.0823                 1.0822
 Frc consts  --     6.8868                 6.8804                 6.8899
 IR Inten    --     8.9933                14.6016                15.7404
 Raman Activ --    37.9403               262.6872               123.9261

                   115                    116                    117
                     A                      A                      A
 Frequencies --  3294.2270              3298.2407              3299.2107
 Red. masses --     1.0788                 1.0758                 1.0855
 Frc consts  --     6.8976                 6.8952                 6.9616
 IR Inten    --   263.2876               239.8133               104.1915
 Raman Activ --   159.7757               117.7815                24.5121

                   118                    119                    120
                     A                      A                      A
 Frequencies --  3303.7565              3312.1735              3315.0531
 Red. masses --     1.0868                 1.0878                 1.0860
 Frc consts  --     6.9893                 7.0308                 7.0320
 IR Inten    --    23.5629                 6.1563               117.8838
 Raman Activ --    15.8720                 4.5819                31.6168

                   121                    122                    123
                     A                      A                      A
 Frequencies --  3320.6590              3330.2511              3338.8293
 Red. masses --     1.1030                 1.1056                 1.0677
 Frc consts  --     7.1660                 7.2244                 7.0125
 IR Inten    --    67.4419                59.7965               692.2851
 Raman Activ --    16.5450                41.3861               137.0156

                   124                    125                    126
                     A                      A                      A
 Frequencies --  3389.1041              3390.0393              3390.4837
 Red. masses --     1.0656                 1.0675                 1.0680
 Frc consts  --     7.2112                 7.2283                 7.2332
 IR Inten    --    34.8838                43.5047                52.6868
 Raman Activ --    94.4074               161.4218               183.7325

                   127                    128                    129
                     A                      A                      A
 Frequencies --  3401.9194              3918.7616              3919.7910
 Red. masses --     1.0686                 1.0677                 1.0679
 Frc consts  --     7.2867                 9.6607                 9.6672
 IR Inten    --    77.1017                78.9263                77.9131
 Raman Activ --   163.9042               110.9814                91.1901

 - Thermochemistry -
 -------------------
 Temperature   298.150 Kelvin.  Pressure   1.00000 Atm.
 Atom     1 has atomic number  8 and mass  15.99491

 Molecular mass:   342.11621 amu.
 Principal axes and moments of inertia in atomic units:
                           1         2         3
     Eigenvalues --  4482.01536********************
           X            0.99998   0.00642  -0.00034
           Y           -0.00642   0.99998   0.00016
           Z            0.00034  -0.00016   1.00000
 This molecule is an asymmetric top.
 Rotational symmetry number  1.
 Warning -- assumption of classical behavior for rotation
           may cause significant error
 Rotational temperatures (Kelvin)      0.01932     0.00692     0.00521
 Rotational constants (GHZ):           0.40266     0.14425     0.10864
    7 imaginary frequencies ignored.
 Zero-point vibrational energy     974969.0 (Joules/Mol)
                                  233.02318 (Kcal/Mol)
 Warning -- explicit consideration of  33 degrees of freedom as
           vibrations may cause significant error
 Vibrational temperatures:     44.79    61.33   109.29   115.08   127.36
          (Kelvin)            206.78   232.77   255.27   300.04   336.49
                              368.68   383.55   410.19   427.33   440.43
                              446.68   467.58   486.15   505.09   546.17
                              567.35   590.27   615.84   620.33   671.24
                              689.03   726.77   751.90   810.44   826.27
                              835.66   867.61   872.01   897.26   908.22
                              955.47   977.03  1077.54  1166.90  1195.80
                             1213.80  1248.51  1328.93  1371.45  1396.91
                             1419.93  1432.42  1453.27  1472.62  1482.82
                             1511.47  1522.92  1540.78  1549.67  1566.33
                             1569.84  1590.56  1598.54  1604.48  1610.00
                             1626.38  1640.14  1649.06  1665.74  1671.13
                             1677.60  1708.92  1712.59  1746.99  1750.63
                             1773.86  1785.94  1804.36  1817.71  1823.97
                             1839.69  1855.16  1863.36  1868.36  1884.41
                             1895.31  1900.59  1911.03  1924.37  1927.91
                             1933.58  1960.12  1973.81  1981.71  1994.13
                             1998.59  2018.96  2026.79  2069.51  2080.79
                             2101.14  2123.66  2129.25  2146.92  2153.68
                             4699.93  4708.39  4713.53  4725.32  4725.68
                             4726.18  4729.61  4739.65  4745.43  4746.82
                             4753.36  4765.47  4769.62  4777.68  4791.48
                             4803.82  4876.16  4877.50  4878.14  4894.60
                             5638.22  5639.70

 Zero-point correction=                           0.371346 (Hartree/Particle)
 Thermal correction to Energy=                    0.390115
 Thermal correction to Enthalpy=                  0.391059
 Thermal correction to Gibbs Free Energy=         0.324514
 Sum of electronic and zero-point Energies=          -1297.568088
 Sum of electronic and thermal Energies=             -1297.549319
 Sum of electronic and thermal Enthalpies=           -1297.548375
 Sum of electronic and thermal Free Energies=        -1297.614920

                     E (Thermal)             CV                S
                      KCal/Mol        Cal/Mol-Kelvin    Cal/Mol-Kelvin
 Total                  244.801             76.615            140.056
 Electronic               0.000              0.000              0.000
 Translational            0.889              2.981             43.384
 Rotational               0.889              2.981             35.187
 Vibrational            243.023             70.654             61.485
 Vibration     1          0.594              1.983              5.756
 Vibration     2          0.595              1.980              5.133
 Vibration     3          0.599              1.965              3.993
 Vibration     4          0.600              1.963              3.891
 Vibration     5          0.601              1.957              3.692
 Vibration     6          0.616              1.909              2.754
 Vibration     7          0.622              1.889              2.529
 Vibration     8          0.628              1.870              2.355
 Vibration     9          0.642              1.828              2.056
 Vibration    10          0.654              1.789              1.849
 Vibration    11          0.666              1.752              1.687
 Vibration    12          0.672              1.734              1.618
 Vibration    13          0.683              1.701              1.503
 Vibration    14          0.691              1.679              1.434
 Vibration    15          0.697              1.662              1.383
 Vibration    16          0.699              1.654              1.360
 Vibration    17          0.709              1.626              1.285
 Vibration    18          0.718              1.600              1.222
 Vibration    19          0.728              1.573              1.161
 Vibration    20          0.750              1.514              1.041
 Vibration    21          0.761              1.482              0.984
 Vibration    22          0.774              1.448              0.926
 Vibration    23          0.790              1.409              0.865
 Vibration    24          0.792              1.402              0.855
 Vibration    25          0.824              1.324              0.747
 Vibration    26          0.835              1.297              0.713
 Vibration    27          0.860              1.239              0.645
 Vibration    28          0.878              1.200              0.604
 Vibration    29          0.919              1.111              0.517
 Vibration    30          0.931              1.087              0.496
 Vibration    31          0.938              1.073              0.484
 Vibration    32          0.961              1.025              0.444
 Vibration    33          0.965              1.019              0.439

 Normal termination of Gaussian 09 at Thu Jan 21 05:12:41 2016.
