 Gaussian 09, Revision B.01,
 Gaussian 09:  EM64L-G09RevB.01 12-Aug-2010

 --------------------------------------------------
 # freq=raman b3lyp/6-31+g(2df,p) geom=connectivity
 --------------------------------------------------

 ------------
 290 5000.com
 ------------
 Symbolic Z-matrix:
 Charge =  0 Multiplicity = 1

                         Standard orientation:
 ---------------------------------------------------------------------
 Center     Atomic      Atomic             Coordinates (Angstroms)
 Number     Number       Type             X           Y           Z
 ---------------------------------------------------------------------
      1          8           0       -5.076385    0.389660   -0.340387
      2          6           0       -3.758359    0.107064    0.151414
      3          6           0       -3.270083   -1.272753   -0.258124
      4          8           0       -4.249787   -2.250186    0.120230
      5          1           0       -5.175390   -1.889051    0.012112
      6          6           0       -1.894043   -1.576439    0.312389
      7          8           0       -1.409546   -2.782118   -0.295482
      8          1           0       -0.412308   -2.713906   -0.330145
      9          6           0       -2.955199    2.617131   -0.010727
     10          8           0       -4.197661    3.332786   -0.056549
     11          1           0       -4.111132    4.325946    0.021555
     12          6           0       -2.752120    1.143416   -0.323265
     13          8           0       -1.438949    0.804074    0.143431
     14          6           0       -0.912744   -0.502872   -0.129019
     15          8           0        0.301434   -0.626649    0.626026
     16          6           0        1.536471   -0.190760    0.038901
     17          6           0        2.025974    1.208264    0.376187
     18          8           0        1.008726    2.155924    0.020038
     19          1           0        0.094775    1.925993    0.353657
     20          6           0        3.437264    1.519262   -0.093307
     21          8           0        4.015351    2.773144    0.297715
     22          1           0        4.863708    2.765571   -0.231756
     23          6           0        2.371187   -2.637783   -0.104740
     24          8           0        1.099669   -3.238589    0.179649
     25          1           0        1.314397   -4.212695    0.247365
     26          6           0        2.622610   -1.208457    0.346408
     27          8           0        3.822792   -0.828358   -0.341408
     28          6           0        4.401329    0.376465    0.181289
     29          8           0        5.485020    0.495947   -0.752100
     30          1           0       -5.665121    0.556077    0.399407
     31          1           0        6.308497    0.613919   -0.272968
     32          1           0        4.716000    0.298614    1.201005
     33          1           0       -3.790616    0.142525    1.220340
     34          1           0       -3.190142   -1.287270   -1.325035
     35          1           0       -2.727294    1.065413   -1.390129
     36          1           0       -2.293915    3.144828   -0.665814
     37          1           0       -2.578395    2.756378    0.981003
     38          1           0       -1.923176   -1.662894    1.378492
     39          1           0       -0.705548   -0.603396   -1.173942
     40          1           0        1.389502   -0.210472   -1.020775
     41          1           0        2.810402   -1.205929    1.399797
     42          1           0        3.124160   -3.252793    0.342133
     43          1           0        2.511342   -2.669273   -1.165053
     44          1           0        2.077324    1.239634    1.444494
     45          1           0        3.363893    1.572454   -1.159463
 ---------------------------------------------------------------------

 SCF Done:  E(RB3LYP) =  -1298.00028947     A.U. after   14 cycles

 The electronic state is 1-A.
 Alpha  occ. eigenvalues --  -19.18668 -19.18493 -19.18349 -19.18054 -19.17997
 Alpha  occ. eigenvalues --  -19.16854 -19.16713 -19.15909 -19.14585 -19.13958
 Alpha  occ. eigenvalues --  -19.12668 -10.31149 -10.30704 -10.25941 -10.25777
 Alpha  occ. eigenvalues --  -10.25611 -10.25183 -10.25132 -10.24926 -10.24796
 Alpha  occ. eigenvalues --  -10.24153 -10.23962 -10.23824  -1.10012  -1.09345
 Alpha  occ. eigenvalues --   -1.05668  -1.04980  -1.03897  -1.03737  -1.02848
 Alpha  occ. eigenvalues --   -1.02069  -1.01435  -1.00644  -0.99649  -0.82050
 Alpha  occ. eigenvalues --   -0.79937  -0.79629  -0.78288  -0.71980  -0.70075
 Alpha  occ. eigenvalues --   -0.67611  -0.64927  -0.63122  -0.62463  -0.61431
 Alpha  occ. eigenvalues --   -0.60134  -0.56822  -0.55884  -0.54982  -0.54814
 Alpha  occ. eigenvalues --   -0.53571  -0.53229  -0.52982  -0.52045  -0.51224
 Alpha  occ. eigenvalues --   -0.50994  -0.49612  -0.48920  -0.48582  -0.46418
 Alpha  occ. eigenvalues --   -0.46172  -0.45350  -0.44922  -0.43872  -0.43387
 Alpha  occ. eigenvalues --   -0.42644  -0.41821  -0.40951  -0.40228  -0.39208
 Alpha  occ. eigenvalues --   -0.38832  -0.38653  -0.38033  -0.35680  -0.35514
 Alpha  occ. eigenvalues --   -0.34968  -0.34883  -0.33832  -0.33591  -0.33133
 Alpha  occ. eigenvalues --   -0.32447  -0.31406  -0.30933  -0.30448  -0.30188
 Alpha  occ. eigenvalues --   -0.29143  -0.28310  -0.28192  -0.27166  -0.26711
 Alpha  occ. eigenvalues --   -0.26373
 Alpha virt. eigenvalues --   -0.02048  -0.01986  -0.01826  -0.00271   0.00005
 Alpha virt. eigenvalues --    0.01102   0.01922   0.02464   0.02832   0.03404
 Alpha virt. eigenvalues --    0.03694   0.04324   0.04769   0.05498   0.05710

 Mulliken atomic charges:
              1
     1  O   -0.449187
     2  C   -0.228080
     3  C    0.076353
     4  O   -0.476105
     5  H    0.353016
     6  C   -0.013086
     7  O   -0.462189
     8  H    0.416208
     9  C   -0.378641
    10  O   -0.486600
    11  H    0.358236
    12  C    0.134377
    13  O   -0.072422
    14  C   -0.040705
    15  O    0.004986
    16  C    0.246432
    17  C    0.010944
    18  O   -0.461592
    19  H    0.395694
    20  C   -0.091997
    21  O   -0.446656
    22  H    0.341745
    23  C   -0.348954
    24  O   -0.454156
    25  H    0.369404
    26  C   -0.408837
    27  O   -0.010695
    28  C   -0.011078
    29  O   -0.467875
    30  H    0.356224
    31  H    0.344484
    32  H    0.142265
    33  H    0.124832
    34  H    0.126547
    35  H    0.114023
    36  H    0.156601
    37  H    0.148245
    38  H    0.139811
    39  H    0.137613
    40  H    0.117958
    41  H    0.122542
    42  H    0.146970
    43  H    0.162631
    44  H    0.117007
    45  H    0.143705
 Sum of Mulliken atomic charges =   0.00000

 Dipole moment (field-independent basis, Debye):
    X=              3.5981    Y=              0.1055    Z=              2.0429  Tot=              4.1390
 Quadrupole moment (field-independent basis, Debye-Ang):
   XX=           -116.4473   YY=           -139.0184   ZZ=           -138.3665
   XY=            -19.2213   XZ=             -0.2903   YZ=             -1.6723

  Exact polarizability: 236.965   0.587 197.924  -1.057   0.552 143.602
 Approx polarizability: 277.814  -0.234 257.064  -2.239   1.058 239.639

 ******    8 imaginary frequencies (negative Signs) ******

                     1                      2                      3
                     A                      A                      A
 Frequencies --  -350.2279              -261.8546              -176.5999
 Red. masses --     1.7060                 1.7622                 1.2459
 Frc consts  --     0.1233                 0.0712                 0.0229
 IR Inten    --     4.8910                 0.4275                86.3795
 Raman Activ --     0.0664                 0.0703                 0.8207

                     4                      5                      6
                     A                      A                      A
 Frequencies --  -167.7558               -80.2834               -59.7913
 Red. masses --     1.2284                 7.2547                 6.3342
 Frc consts  --     0.0204                 0.0276                 0.0133
 IR Inten    --   117.9184                 1.7996                 0.3951
 Raman Activ --     0.6001                 0.0155                 0.0492

                     7                      8                      9
                     A                      A                      A
 Frequencies --   -38.3857               -27.6244                56.4227
 Red. masses --     6.7532                 6.2645                 6.5953
 Frc consts  --     0.0059                 0.0028                 0.0124
 IR Inten    --     1.5750                 1.6349                 0.3800
 Raman Activ --     0.0314                 0.0355                 0.0332

                    10                     11                     12
                     A                      A                      A
 Frequencies --    78.1185                84.5088               109.1913
 Red. masses --     5.6705                 6.6273                 5.5888
 Frc consts  --     0.0204                 0.0279                 0.0393
 IR Inten    --     8.6882                 0.9686                 0.8058
 Raman Activ --     0.1404                 0.2961                 0.1503

                    13                     14                     15
                     A                      A                      A
 Frequencies --   138.3548               166.8842               185.5092
 Red. masses --     5.9669                 6.4819                 7.4208
 Frc consts  --     0.0673                 0.1064                 0.1505
 IR Inten    --     3.5314                 1.8583                 1.7694
 Raman Activ --     0.2915                 0.2768                 0.9201

                    16                     17                     18
                     A                      A                      A
 Frequencies --   213.9554               220.7903               248.9976
 Red. masses --     7.1604                 5.7600                 4.3475
 Frc consts  --     0.1931                 0.1654                 0.1588
 IR Inten    --     0.2331                 2.1049                18.6902
 Raman Activ --     3.4982                 0.1884                 0.2271

                    19                     20                     21
                     A                      A                      A
 Frequencies --   269.4083               294.0455               296.4210
 Red. masses --     4.8613                 5.2837                 4.4314
 Frc consts  --     0.2079                 0.2692                 0.2294
 IR Inten    --     4.8793                 2.1992                 1.2744
 Raman Activ --     0.1378                 0.8350                 0.0392

                    22                     23                     24
                     A                      A                      A
 Frequencies --   307.1525               316.9890               323.1206
 Red. masses --     6.0288                 6.3457                 4.9257
 Frc consts  --     0.3351                 0.3757                 0.3030
 IR Inten    --     5.3590                 2.5298                 1.7970
 Raman Activ --     2.0233                 1.9971                 3.1605

                    25                     26                     27
                     A                      A                      A
 Frequencies --   349.6859               360.5748               387.7315
 Red. masses --     6.3856                 4.0140                 5.7292
 Frc consts  --     0.4601                 0.3075                 0.5075
 IR Inten    --     7.2788                 2.1596                 2.3898
 Raman Activ --     2.7388                 0.4871                 0.7820

                    28                     29                     30
                     A                      A                      A
 Frequencies --   401.9722               416.8451               428.5525
 Red. masses --     4.8722                 5.1984                 6.4577
 Frc consts  --     0.4638                 0.5322                 0.6988
 IR Inten    --    21.7870                 1.8602                 0.3783
 Raman Activ --     1.7585                 6.0431                 3.9654

                    31                     32                     33
                     A                      A                      A
 Frequencies --   443.2102               476.6778               481.7135
 Red. masses --     4.8721                 4.5677                 4.6588
 Frc consts  --     0.5639                 0.6115                 0.6369
 IR Inten    --     2.5053                 9.4537                14.1080
 Raman Activ --     1.1660                 3.2635                 0.3850

                    34                     35                     36
                     A                      A                      A
 Frequencies --   497.9227               532.6751               565.5547
 Red. masses --     3.8518                 3.1434                 3.4038
 Frc consts  --     0.5626                 0.5255                 0.6415
 IR Inten    --    15.0940                 8.8680                 8.2369
 Raman Activ --     4.7510                 2.8527                 0.8814

                    37                     38                     39
                     A                      A                      A
 Frequencies --   579.7542               604.6576               617.2008
 Red. masses --     3.0667                 6.1137                 4.2967
 Frc consts  --     0.6073                 1.3170                 0.9644
 IR Inten    --    48.7771                 5.1226                 1.9474
 Raman Activ --     0.5243                 0.7875                 0.3663

                    40                     41                     42
                     A                      A                      A
 Frequencies --   626.0488               632.0943               683.8358
 Red. masses --     1.4066                 2.3990                 5.6356
 Frc consts  --     0.3248                 0.5647                 1.5527
 IR Inten    --    62.6076                76.4115                15.8224
 Raman Activ --     1.6341                 1.9132                 0.9716

                    43                     44                     45
                     A                      A                      A
 Frequencies --   700.1015               734.2870               735.9017
 Red. masses --     1.0699                 1.0843                 1.0571
 Frc consts  --     0.3090                 0.3445                 0.3373
 IR Inten    --   147.5581                43.9750               147.6675
 Raman Activ --     3.4572                 1.2975                 1.9340

                    46                     47                     48
                     A                      A                      A
 Frequencies --   775.5900               794.3821               848.1084
 Red. masses --     1.0942                 1.0911                 1.8607
 Frc consts  --     0.3878                 0.4057                 0.7885
 IR Inten    --    72.7147               137.5282                 3.2505
 Raman Activ --     1.3885                 0.7240                 2.4411

                    49                     50                     51
                     A                      A                      A
 Frequencies --   857.6577               911.8024               942.2844
 Red. masses --     1.6892                 6.2969                 5.3912
 Frc consts  --     0.7321                 3.0844                 2.8203
 IR Inten    --    11.4887               157.7408                44.8700
 Raman Activ --     1.5698                 2.7369                 0.3842

                    52                     53                     54
                     A                      A                      A
 Frequencies --   966.3968               978.0314               987.7768
 Red. masses --     4.9428                 5.6807                 5.6791
 Frc consts  --     2.7198                 3.2015                 3.2648
 IR Inten    --    25.0093                52.9201               548.8410
 Raman Activ --     1.2588                 3.6123                 0.7744

                    55                     56                     57
                     A                      A                      A
 Frequencies --   992.3697              1005.6430              1011.9156
 Red. masses --     5.8779                 7.0178                 5.6460
 Frc consts  --     3.4105                 4.1816                 3.4063
 IR Inten    --    35.7990                21.1970                97.3312
 Raman Activ --     1.4656                 2.7452                 2.7847

                    58                     59                     60
                     A                      A                      A
 Frequencies --  1040.8940              1058.8188              1061.3021
 Red. masses --     4.3752                 2.8453                 3.7429
 Frc consts  --     2.7929                 1.8794                 2.4839
 IR Inten    --   313.5289                47.5443                61.6012
 Raman Activ --     2.0450                15.3981                 2.0555

                    61                     62                     63
                     A                      A                      A
 Frequencies --  1069.8239              1080.2666              1083.0202
 Red. masses --     6.7859                 4.8159                 6.8798
 Frc consts  --     4.5759                 3.3112                 4.7545
 IR Inten    --    33.7768               106.2093                38.6439
 Raman Activ --     3.5270                10.7678                 1.6542

                    64                     65                     66
                     A                      A                      A
 Frequencies --  1097.1212              1100.4144              1103.5137
 Red. masses --     2.3763                 2.7970                 2.8174
 Frc consts  --     1.6852                 1.9955                 2.0214
 IR Inten    --    62.3959                41.2907                19.1894
 Raman Activ --     3.4285                13.8647                 2.4656

                    67                     68                     69
                     A                      A                      A
 Frequencies --  1117.6088              1124.6653              1133.9589
 Red. masses --     2.5370                 3.1460                 2.6400
 Frc consts  --     1.8670                 2.3445                 2.0001
 IR Inten    --     7.1136                18.3762               133.8536
 Raman Activ --     2.4691                 9.6034                 3.2140

                    70                     71                     72
                     A                      A                      A
 Frequencies --  1140.2968              1156.6749              1160.7521
 Red. masses --     3.0744                 1.9268                 1.8068
 Frc consts  --     2.3553                 1.5189                 1.4343
 IR Inten    --    11.3883                 3.6827                32.7185
 Raman Activ --    10.0476                 2.0138                 4.2550

                    73                     74                     75
                     A                      A                      A
 Frequencies --  1167.6144              1182.2275              1190.0908
 Red. masses --     2.0560                 1.7366                 1.7705
 Frc consts  --     1.6515                 1.4301                 1.4774
 IR Inten    --    15.9552                19.6454                31.9734
 Raman Activ --     2.3396                 2.6090                 1.4199

                    76                     77                     78
                     A                      A                      A
 Frequencies --  1193.1153              1208.7009              1220.5641
 Red. masses --     1.4355                 1.3042                 1.3245
 Frc consts  --     1.2040                 1.1227                 1.1626
 IR Inten    --    14.6619                 8.8777                 2.7017
 Raman Activ --     3.9331                 1.2604                 0.8913

                    79                     80                     81
                     A                      A                      A
 Frequencies --  1224.4005              1253.7939              1263.0546
 Red. masses --     1.4836                 1.2083                 1.2300
 Frc consts  --     1.3105                 1.1191                 1.1561
 IR Inten    --     1.1114                 9.5496                 8.9622
 Raman Activ --     1.7487                 1.3602                 3.7208

                    82                     83                     84
                     A                      A                      A
 Frequencies --  1266.2644              1283.3659              1285.9357
 Red. masses --     1.2952                 1.3564                 1.1980
 Frc consts  --     1.2236                 1.3163                 1.1672
 IR Inten    --     6.4417                26.1358                59.3806
 Raman Activ --     1.5923                 0.9603                 5.1986

                    85                     86                     87
                     A                      A                      A
 Frequencies --  1291.8678              1297.2021              1301.7470
 Red. masses --     1.3213                 1.1625                 1.2623
 Frc consts  --     1.2992                 1.1526                 1.2603
 IR Inten    --    10.8779                15.2548                 6.1649
 Raman Activ --     1.8476                 2.7382                 2.6081

                    88                     89                     90
                     A                      A                      A
 Frequencies --  1307.0004              1313.3058              1327.4854
 Red. masses --     1.2904                 1.1852                 1.3371
 Frc consts  --     1.2988                 1.2044                 1.3883
 IR Inten    --    20.5631                11.7548                19.1649
 Raman Activ --    11.4680                 5.2555                 2.7344

                    91                     92                     93
                     A                      A                      A
 Frequencies --  1335.9450              1340.3789              1346.1169
 Red. masses --     1.1910                 1.2688                 1.3866
 Frc consts  --     1.2524                 1.3431                 1.4803
 IR Inten    --    26.1440                13.0542                14.6833
 Raman Activ --     3.9501                 2.0628                 7.3807

                    94                     95                     96
                     A                      A                      A
 Frequencies --  1354.9079              1363.7962              1373.3291
 Red. masses --     1.3212                 1.2496                 1.3192
 Frc consts  --     1.4290                 1.3694                 1.4659
 IR Inten    --    41.7546                 2.9422                18.9001
 Raman Activ --     3.9802                 8.9928                 3.4538

                    97                     98                     99
                     A                      A                      A
 Frequencies --  1380.2067              1389.2515              1397.0334
 Red. masses --     1.3648                 1.3770                 1.5894
 Frc consts  --     1.5319                 1.5658                 1.8277
 IR Inten    --     3.5347                 3.8382                16.7114
 Raman Activ --     5.0763                 3.5057                 4.6174

                   100                    101                    102
                     A                      A                      A
 Frequencies --  1408.1952              1428.6998              1445.1224
 Red. masses --     1.5648                 1.3413                 1.3089
 Frc consts  --     1.8282                 1.6131                 1.6105
 IR Inten    --    47.8550                31.7557                 3.6554
 Raman Activ --     1.5581                 3.4380                 1.0879

                   103                    104                    105
                     A                      A                      A
 Frequencies --  1464.0588              1469.7775              1482.9473
 Red. masses --     1.0724                 1.0975                 1.3594
 Frc consts  --     1.3543                 1.3968                 1.7613
 IR Inten    --     3.2401                 0.6549                28.5192
 Raman Activ --     5.2494                 3.3499                 0.5467

                   106                    107                    108
                     A                      A                      A
 Frequencies --  1483.9230              1520.2256              3248.5956
 Red. masses --     1.3757                 1.2076                 1.0778
 Frc consts  --     1.7848                 1.6443                 6.7016
 IR Inten    --    34.8470                71.1467                 9.5364
 Raman Activ --     2.2870                 2.0644               135.1383

                   109                    110                    111
                     A                      A                      A
 Frequencies --  3251.8704              3254.1924              3256.9156
 Red. masses --     1.0586                 1.0623                 1.0819
 Frc consts  --     6.5958                 6.6277                 6.7619
 IR Inten    --    18.1726               485.4328                16.2374
 Raman Activ --    61.3238                32.7301                60.4435

                   112                    113                    114
                     A                      A                      A
 Frequencies --  3262.5970              3264.6807              3268.5418
 Red. masses --     1.0803                 1.0656                 1.0816
 Frc consts  --     6.7751                 6.6917                 6.8084
 IR Inten    --    32.3960               197.9521                31.9149
 Raman Activ --    28.0999               331.4554                54.5936

                   115                    116                    117
                     A                      A                      A
 Frequencies --  3272.4044              3281.1639              3282.6980
 Red. masses --     1.0837                 1.0860                 1.0865
 Frc consts  --     6.8372                 6.8888                 6.8982
 IR Inten    --     1.2595                24.6822                 9.7731
 Raman Activ --    75.9130                 8.2338                 7.6752

                   118                    119                    120
                     A                      A                      A
 Frequencies --  3284.0690              3299.3741              3299.5089
 Red. masses --     1.0838                 1.0961                 1.0888
 Frc consts  --     6.8871                 7.0301                 6.9839
 IR Inten    --    28.9866                16.9238                48.7688
 Raman Activ --    81.2757                38.1592                57.8678

                   121                    122                    123
                     A                      A                      A
 Frequencies --  3302.6764              3310.0369              3314.5429
 Red. masses --     1.0891                 1.0712                 1.1054
 Frc consts  --     6.9994                 6.9151                 7.1549
 IR Inten    --   133.6939               546.5818                52.4794
 Raman Activ --     6.3562               152.5862                42.5427

                   124                    125                    126
                     A                      A                      A
 Frequencies --  3355.2162              3356.5561              3358.8718
 Red. masses --     1.0649                 1.0682                 1.0658
 Frc consts  --     7.0630                 7.0910                 7.0845
 IR Inten    --    40.2539                64.9584                48.9747
 Raman Activ --    93.0209               167.5898               123.9207

                   127                    128                    129
                     A                      A                      A
 Frequencies --  3367.5379              3875.1949              3878.5845
 Red. masses --     1.0674                 1.0677                 1.0673
 Frc consts  --     7.1317                 9.4465                 9.4597
 IR Inten    --    55.9801                81.2475                62.4436
 Raman Activ --   146.1908                83.3783               136.7639

 - Thermochemistry -
 -------------------
 Temperature   298.150 Kelvin.  Pressure   1.00000 Atm.
 Atom     1 has atomic number  8 and mass  15.99491

 Molecular mass:   342.11621 amu.
 Principal axes and moments of inertia in atomic units:
                           1         2         3
     Eigenvalues --  4419.08725********************
           X            0.99996  -0.00844   0.00035
           Y            0.00844   0.99996   0.00025
           Z           -0.00035  -0.00025   1.00000
 This molecule is an asymmetric top.
 Rotational symmetry number  1.
 Warning -- assumption of classical behavior for rotation
           may cause significant error
 Rotational temperatures (Kelvin)      0.01960     0.00691     0.00522
 Rotational constants (GHZ):           0.40840     0.14391     0.10872
    8 imaginary frequencies ignored.
 Zero-point vibrational energy     971220.8 (Joules/Mol)
                                  232.12734 (Kcal/Mol)
 Warning -- explicit consideration of  31 degrees of freedom as
           vibrations may cause significant error
 Vibrational temperatures:     81.18   112.39   121.59   157.10   199.06
          (Kelvin)            240.11   266.91   307.83   317.67   358.25
                              387.62   423.07   426.48   441.92   456.08
                              464.90   503.12   518.79   557.86   578.35
                              599.75   616.59   637.68   685.83   693.08
                              716.40   766.40   813.71   834.14   869.97
                              888.01   900.74   909.44   983.89  1007.29
                             1056.47  1058.80  1115.90  1142.94  1220.24
                             1233.98  1311.88  1355.74  1390.43  1407.17
                             1421.19  1427.80  1446.89  1455.92  1497.61
                             1523.40  1526.98  1539.24  1554.26  1558.22
                             1578.51  1583.25  1587.71  1607.99  1618.14
                             1631.51  1640.63  1664.20  1670.06  1679.93
                             1700.96  1712.27  1716.62  1739.05  1756.12
                             1761.64  1803.93  1817.25  1821.87  1846.48
                             1850.17  1858.71  1866.38  1872.92  1880.48
                             1889.55  1909.95  1922.12  1928.50  1936.76
                             1949.41  1962.20  1975.91  1985.81  1998.82
                             2010.02  2026.08  2055.58  2079.21  2106.45
                             2114.68  2133.63  2135.03  2187.26  4674.00
                             4678.71  4682.05  4685.97  4694.14  4697.14
                             4702.70  4708.25  4720.86  4723.06  4725.04
                             4747.06  4747.25  4751.81  4762.40  4768.88
                             4827.40  4829.33  4832.66  4845.13  5575.53
                             5580.41

 Zero-point correction=                           0.369918 (Hartree/Particle)
 Thermal correction to Energy=                    0.387604
 Thermal correction to Enthalpy=                  0.388549
 Thermal correction to Gibbs Free Energy=         0.325505
 Sum of electronic and zero-point Energies=          -1297.630371
 Sum of electronic and thermal Energies=             -1297.612685
 Sum of electronic and thermal Enthalpies=           -1297.611741
 Sum of electronic and thermal Free Energies=        -1297.674785

                     E (Thermal)             CV                S
                      KCal/Mol        Cal/Mol-Kelvin    Cal/Mol-Kelvin
 Total                  243.225             74.405            132.687
 Electronic               0.000              0.000              0.000
 Translational            0.889              2.981             43.384
 Rotational               0.889              2.981             35.174
 Vibrational            241.448             68.444             54.129
 Vibration     1          0.596              1.975              4.579
 Vibration     2          0.599              1.964              3.938
 Vibration     3          0.601              1.960              3.783
 Vibration     4          0.606              1.942              3.283
 Vibration     5          0.614              1.915              2.827
 Vibration     6          0.624              1.883              2.470
 Vibration     7          0.632              1.860              2.272
 Vibration     8          0.644              1.820              2.010
 Vibration     9          0.648              1.809              1.953
 Vibration    10          0.662              1.764              1.738
 Vibration    11          0.674              1.729              1.600
 Vibration    12          0.689              1.685              1.451
 Vibration    13          0.690              1.680              1.437
 Vibration    14          0.697              1.660              1.378
 Vibration    15          0.704              1.641              1.326
 Vibration    16          0.708              1.629              1.294
 Vibration    17          0.727              1.576              1.168
 Vibration    18          0.735              1.553              1.120
 Vibration    19          0.756              1.496              1.009
 Vibration    20          0.768              1.466              0.955
 Vibration    21          0.780              1.434              0.903
 Vibration    22          0.790              1.408              0.863
 Vibration    23          0.803              1.376              0.817
 Vibration    24          0.833              1.302              0.719
 Vibration    25          0.838              1.291              0.705
 Vibration    26          0.853              1.255              0.663
 Vibration    27          0.888              1.178              0.581
 Vibration    28          0.921              1.106              0.513
 Vibration    29          0.936              1.075              0.486
 Vibration    30          0.963              1.022              0.442
 Vibration    31          0.977              0.996              0.421

 Normal termination of Gaussian 09 at Fri Feb 12 13:01:01 2016.
