 Gaussian 09, Revision B.01,
 Gaussian 09:  EM64L-G09RevB.01 12-Aug-2010

 -------------------------------------------------
 # freq=raman b3lyp/6-31+g(2d,p) geom=connectivity
 -------------------------------------------------

 -----------------
 500 8510/8510.com
 -----------------
 Symbolic Z-matrix:
 Charge =  0 Multiplicity = 1

                         Standard orientation:
 ---------------------------------------------------------------------
 Center     Atomic      Atomic             Coordinates (Angstroms)
 Number     Number       Type             X           Y           Z
 ---------------------------------------------------------------------
      1          8           0        4.992434   -0.349517   -0.660908
      2          6           0        3.930975    0.002922    0.239113
      3          6           0        3.301793    1.224806   -0.408494
      4          8           0        4.019864    2.456836   -0.248897
      5          1           0        4.992188    2.271551   -0.108893
      6          6           0        1.884107    1.604423   -0.011974
      7          8           0        1.435085    2.746548   -0.755242
      8          1           0        1.815411    3.625287   -0.467061
      9          6           0        3.295400   -2.396370    0.724885
     10          8           0        2.618343   -3.571014    0.253759
     11          1           0        3.123127   -4.412167    0.453475
     12          6           0        2.866674   -1.075127    0.108872
     13          8           0        1.550659   -0.765487    0.589911
     14          6           0        1.072444    0.332671   -0.199495
     15          8           0       -0.122443    0.585104    0.554921
     16          6           0       -1.346187    0.277484   -0.128126
     17          6           0       -1.760852   -1.173337    0.054406
     18          8           0       -0.761027   -2.166722   -0.218296
     19          1           0        0.049268   -1.580673   -0.226928
     20          6           0       -3.138436   -1.514703   -0.489567
     21          8           0       -3.637579   -2.856290   -0.389493
     22          1           0       -2.913518   -3.309420   -0.910294
     23          6           0       -2.109399    2.465506    0.261585
     24          8           0       -2.928961    3.562154    0.691499
     25          1           0       -2.712265    4.395144    0.182039
     26          6           0       -2.487465    1.021683    0.545095
     27          8           0       -3.804872    0.820830    0.011881
     28          6           0       -4.156541   -0.566199    0.120467
     29          8           0       -5.423474   -0.645206   -0.550151
     30          1           0       -6.131048   -0.524585    0.087336
     31          1           0       -4.290411   -0.813788    1.152784
     32          1           0       -3.105285   -1.290658   -1.535322
     33          1           0       -1.893167   -1.251795    1.113291
     34          1           0       -1.283453    0.531177   -1.165722
     35          1           0       -2.480284    0.838047    1.599195
     36          1           0       -2.007221    2.554647   -0.799789
     37          1           0       -1.140034    2.619635    0.687585
     38          1           0        5.813369   -0.433272   -0.170347
     39          1           0        3.147499   -2.331406    1.782621
     40          1           0        4.342076   -2.522291    0.541817
     41          1           0        2.761602   -1.255647   -0.940544
     42          1           0        4.255635    0.170131    1.244865
     43          1           0        3.277208    1.021344   -1.458683
     44          1           0        1.879555    1.857171    1.027736
     45          1           0        0.880434    0.081123   -1.221628
 ---------------------------------------------------------------------

 SCF Done:  E(RB3LYP) =  -1297.94809309     A.U. after   14 cycles

 The electronic state is 1-A.
 Alpha  occ. eigenvalues --  -19.19960 -19.19673 -19.17928 -19.17601 -19.17251
 Alpha  occ. eigenvalues --  -19.16421 -19.16059 -19.15493 -19.14887 -19.14682
 Alpha  occ. eigenvalues --  -19.13934 -10.31875 -10.28408 -10.28072 -10.26568
 Alpha  occ. eigenvalues --  -10.26266 -10.25599 -10.25472 -10.24983 -10.24296
 Alpha  occ. eigenvalues --  -10.23679 -10.23247 -10.21707  -1.11623  -1.07870
 Alpha  occ. eigenvalues --   -1.06964  -1.05202  -1.04616  -1.02855  -1.02646
 Alpha  occ. eigenvalues --   -1.02462  -1.01159  -1.00616  -0.99733  -0.83047
 Alpha  occ. eigenvalues --   -0.82608  -0.79003  -0.77595  -0.72418  -0.69300
 Alpha  occ. eigenvalues --   -0.67787  -0.64838  -0.64096  -0.62700  -0.60989
 Alpha  occ. eigenvalues --   -0.59876  -0.57705  -0.56635  -0.55502  -0.54367
 Alpha  occ. eigenvalues --   -0.53793  -0.53318  -0.52547  -0.52063  -0.51586
 Alpha  occ. eigenvalues --   -0.50369  -0.49247  -0.47905  -0.47424  -0.46699
 Alpha  occ. eigenvalues --   -0.45838  -0.44866  -0.44073  -0.43631  -0.43048
 Alpha  occ. eigenvalues --   -0.42605  -0.41899  -0.41197  -0.40708  -0.39807
 Alpha  occ. eigenvalues --   -0.39399  -0.38259  -0.37982  -0.37342  -0.36234
 Alpha  occ. eigenvalues --   -0.35611  -0.35175  -0.34808  -0.34123  -0.33241
 Alpha  occ. eigenvalues --   -0.32178  -0.31709  -0.30498  -0.30380  -0.29594
 Alpha  occ. eigenvalues --   -0.29299  -0.28966  -0.28207  -0.27409  -0.26099
 Alpha  occ. eigenvalues --   -0.25622
 Alpha virt. eigenvalues --   -0.03780  -0.01850  -0.01085  -0.00191   0.00385
 Alpha virt. eigenvalues --    0.00873   0.01002   0.02109   0.02227   0.02617
 Alpha virt. eigenvalues --    0.03655   0.04165   0.04664   0.05424   0.05730

 Mulliken atomic charges:
              1
     1  O   -0.511370
     2  C   -0.259552
     3  C    0.262909
     4  O   -0.604178
     5  H    0.330153
     6  C    0.035229
     7  O   -0.563085
     8  H    0.359684
     9  C   -0.407913
    10  O   -0.513825
    11  H    0.341776
    12  C    0.463683
    13  O   -0.220978
    14  C   -0.083051
    15  O   -0.206985
    16  C    0.021683
    17  C    0.438254
    18  O   -0.598301
    19  H    0.371077
    20  C   -0.102836
    21  O   -0.480322
    22  H    0.341245
    23  C   -0.356536
    24  O   -0.539964
    25  H    0.324076
    26  C    0.161834
    27  O   -0.241691
    28  C    0.229591
    29  O   -0.501868
    30  H    0.325399
    31  H    0.119542
    32  H    0.116921
    33  H    0.101829
    34  H    0.119474
    35  H    0.129025
    36  H    0.128056
    37  H    0.162080
    38  H    0.330573
    39  H    0.148188
    40  H    0.133822
    41  H    0.131248
    42  H    0.137227
    43  H    0.136888
    44  H    0.134245
    45  H    0.156746
 Sum of Mulliken atomic charges =   0.00000

 Dipole moment (field-independent basis, Debye):
    X=              9.3737    Y=              0.7508    Z=              1.6868  Tot=              9.5538
 Quadrupole moment (field-independent basis, Debye-Ang):
   XX=           -119.3898   YY=           -137.2376   ZZ=           -139.4249
   XY=             -7.1017   XZ=              5.5304   YZ=             -3.8178

  Exact polarizability: 225.515   1.466 203.396   0.896  -0.183 144.405
 Approx polarizability: 268.713   0.801 264.979   0.758  -0.202 240.244

 ******    7 imaginary frequencies (negative Signs) ******

                     1                      2                      3
                     A                      A                      A
 Frequencies --  -287.2163              -256.2109              -252.0968
 Red. masses --     1.6777                 1.1002                 1.7633
 Frc consts  --     0.0815                 0.0426                 0.0660
 IR Inten    --     3.5988                94.0890                 5.7185
 Raman Activ --     0.0704                 1.3961                 0.0362

                     4                      5                      6
                     A                      A                      A
 Frequencies --  -192.5911               -79.5633               -65.5604
 Red. masses --     1.2507                 5.9193                 6.5119
 Frc consts  --     0.0273                 0.0221                 0.0165
 IR Inten    --    99.2946                 0.5488                 0.2505
 Raman Activ --     0.7842                 0.1001                 0.0547

                     7                      8                      9
                     A                      A                      A
 Frequencies --   -22.0353                26.1629                51.8425
 Red. masses --     5.9369                 6.6186                 6.0753
 Frc consts  --     0.0017                 0.0027                 0.0096
 IR Inten    --     0.9907                 0.3539                 1.2734
 Raman Activ --     0.1214                 0.0452                 0.0286

                    10                     11                     12
                     A                      A                      A
 Frequencies --    57.2583               109.7241               122.5568
 Red. masses --     6.1256                 6.4681                 6.0043
 Frc consts  --     0.0118                 0.0459                 0.0531
 IR Inten    --     0.5101                 2.6572                 0.3276
 Raman Activ --     0.0339                 0.2584                 0.0854

                    13                     14                     15
                     A                      A                      A
 Frequencies --   131.9030               162.7427               188.5676
 Red. masses --     5.9258                 6.6302                 5.9257
 Frc consts  --     0.0607                 0.1035                 0.1241
 IR Inten    --     1.6115                 0.8990                 2.6128
 Raman Activ --     0.7778                 0.7542                 0.4488

                    16                     17                     18
                     A                      A                      A
 Frequencies --   199.0802               219.3959               255.4794
 Red. masses --     5.9207                 6.1873                 4.5531
 Frc consts  --     0.1383                 0.1755                 0.1751
 IR Inten    --     3.1481                 1.9351                 1.2019
 Raman Activ --     0.8699                 1.3879                 0.3299

                    19                     20                     21
                     A                      A                      A
 Frequencies --   274.1140               278.8852               298.3825
 Red. masses --     5.9650                 4.3799                 5.2442
 Frc consts  --     0.2641                 0.2007                 0.2751
 IR Inten    --     2.4144                 3.2103                 5.5952
 Raman Activ --     0.8047                 0.1572                 0.1529

                    22                     23                     24
                     A                      A                      A
 Frequencies --   319.7131               330.4008               339.4746
 Red. masses --     6.0389                 6.1078                 5.7575
 Frc consts  --     0.3637                 0.3928                 0.3909
 IR Inten    --     2.4299                 2.5901                 3.2753
 Raman Activ --     1.8882                 0.1874                 3.1045

                    25                     26                     27
                     A                      A                      A
 Frequencies --   343.6503               364.4145               368.5559
 Red. masses --     7.1652                 5.9769                 4.2945
 Frc consts  --     0.4986                 0.4676                 0.3437
 IR Inten    --     1.0499                 0.1573                13.5630
 Raman Activ --     4.9990                 0.9077                 0.4254

                    28                     29                     30
                     A                      A                      A
 Frequencies --   410.9491               419.6912               444.4937
 Red. masses --     4.6700                 6.1511                 5.5517
 Frc consts  --     0.4647                 0.6384                 0.6463
 IR Inten    --     2.9753                 1.3253                 2.4064
 Raman Activ --     2.9823                 5.4637                 1.0543

                    31                     32                     33
                     A                      A                      A
 Frequencies --   455.0766               482.3781               496.5252
 Red. masses --     4.1667                 3.7207                 3.8125
 Frc consts  --     0.5084                 0.5101                 0.5538
 IR Inten    --     5.5751                 5.7128                21.3259
 Raman Activ --     3.5718                 0.6341                 0.6250

                    34                     35                     36
                     A                      A                      A
 Frequencies --   524.8200               545.6583               560.7970
 Red. masses --     4.6606                 3.9761                 5.3822
 Frc consts  --     0.7563                 0.6975                 0.9973
 IR Inten    --     5.9864                17.1206                 6.6258
 Raman Activ --     3.4522                 5.1655                 2.8798

                    37                     38                     39
                     A                      A                      A
 Frequencies --   583.0914               589.5638               604.5918
 Red. masses --     2.8936                 3.1078                 2.6475
 Frc consts  --     0.5796                 0.6364                 0.5702
 IR Inten    --    20.8943                25.8174                70.5151
 Raman Activ --     1.5090                 0.8758                 0.1519

                    40                     41                     42
                     A                      A                      A
 Frequencies --   628.9049               636.4935               656.2170
 Red. masses --     1.2278                 1.2504                 1.8824
 Frc consts  --     0.2861                 0.2985                 0.4776
 IR Inten    --    64.1430                58.7088                78.0736
 Raman Activ --     0.8051                 0.7316                 0.9355

                    43                     44                     45
                     A                      A                      A
 Frequencies --   663.5362               669.3929               675.8725
 Red. masses --     1.3036                 1.1422                 2.6792
 Frc consts  --     0.3382                 0.3015                 0.7211
 IR Inten    --    92.8956                67.6220                 4.4984
 Raman Activ --     1.5009                 1.8110                 1.3057

                    46                     47                     48
                     A                      A                      A
 Frequencies --   686.5576               733.6911               844.5954
 Red. masses --     1.2089                 1.1499                 2.6723
 Frc consts  --     0.3357                 0.3647                 1.1231
 IR Inten    --   103.4808               116.9665                 9.7675
 Raman Activ --     1.1216                 1.5783                 1.6752

                    49                     50                     51
                     A                      A                      A
 Frequencies --   850.5419               939.0901               952.4502
 Red. masses --     2.7486                 6.0196                 6.2044
 Frc consts  --     1.1715                 3.1278                 3.3162
 IR Inten    --     2.7163                31.0898               243.9121
 Raman Activ --     5.6854                 3.0271                 1.9441

                    52                     53                     54
                     A                      A                      A
 Frequencies --   971.4034               974.5070               987.4053
 Red. masses --     4.8635                 4.4816                 7.1863
 Frc consts  --     2.7039                 2.5076                 4.1281
 IR Inten    --    27.5425                62.9005               298.3610
 Raman Activ --     4.3666                 3.8194                 1.7249

                    55                     56                     57
                     A                      A                      A
 Frequencies --  1000.2689              1009.7526              1024.9826
 Red. masses --     4.8447                 4.8121                 6.0176
 Frc consts  --     2.8559                 2.8908                 3.7249
 IR Inten    --    22.8970               221.8761               233.3160
 Raman Activ --     3.3953                 1.3662                 1.0262

                    58                     59                     60
                     A                      A                      A
 Frequencies --  1039.3456              1041.9979              1050.9877
 Red. masses --     4.8148                 5.2287                 2.7473
 Frc consts  --     3.0644                 3.3449                 1.7879
 IR Inten    --   162.1057                 6.2299                20.7597
 Raman Activ --     2.2339                 4.2657                14.2232

                    61                     62                     63
                     A                      A                      A
 Frequencies --  1061.8897              1071.0950              1082.9354
 Red. masses --     2.5867                 4.3564                 4.8285
 Frc consts  --     1.7185                 2.9446                 3.3363
 IR Inten    --    43.0193                97.3190                52.3308
 Raman Activ --     8.1862                 2.0435                 6.9384

                    64                     65                     66
                     A                      A                      A
 Frequencies --  1088.9379              1097.6770              1109.2033
 Red. masses --     2.3645                 2.5694                 2.5418
 Frc consts  --     1.6520                 1.8240                 1.8425
 IR Inten    --    49.9287                 9.7468                56.0890
 Raman Activ --     8.9054                 5.7561                 5.3050

                    67                     68                     69
                     A                      A                      A
 Frequencies --  1119.2161              1121.6651              1132.4273
 Red. masses --     3.0249                 1.9450                 2.2329
 Frc consts  --     2.2325                 1.4418                 1.6871
 IR Inten    --     3.5919                 5.7108                11.8831
 Raman Activ --     5.1321                 5.4086                 1.0587

                    70                     71                     72
                     A                      A                      A
 Frequencies --  1140.2989              1151.6499              1158.5009
 Red. masses --     2.5844                 2.4692                 2.3063
 Frc consts  --     1.9799                 1.9295                 1.8237
 IR Inten    --    15.3268                51.2526                 5.9666
 Raman Activ --     5.1818                 0.9527                 5.9679

                    73                     74                     75
                     A                      A                      A
 Frequencies --  1164.4611              1173.4739              1176.6522
 Red. masses --     2.6223                 1.6796                 2.2763
 Frc consts  --     2.0950                 1.3627                 1.8568
 IR Inten    --     2.9864                31.8615                50.8093
 Raman Activ --     3.9618                 2.6425                 0.8619

                    76                     77                     78
                     A                      A                      A
 Frequencies --  1185.3076              1218.1336              1227.7597
 Red. masses --     1.5366                 1.5550                 1.4267
 Frc consts  --     1.2719                 1.3594                 1.2671
 IR Inten    --    23.9239                 6.1105                 1.0973
 Raman Activ --     1.0235                 0.9130                 1.4794

                    79                     80                     81
                     A                      A                      A
 Frequencies --  1233.8005              1253.0165              1256.9025
 Red. masses --     1.3636                 1.2319                 1.1615
 Frc consts  --     1.2230                 1.1396                 1.0811
 IR Inten    --    47.3828                18.9529                15.9898
 Raman Activ --     2.9416                 2.6337                 1.9430

                    82                     83                     84
                     A                      A                      A
 Frequencies --  1272.9875              1278.7136              1294.5470
 Red. masses --     1.1551                 1.3130                 1.2906
 Frc consts  --     1.1028                 1.2649                 1.2743
 IR Inten    --     5.8063                 8.8477                32.0803
 Raman Activ --     5.6903                 0.9856                 1.4582

                    85                     86                     87
                     A                      A                      A
 Frequencies --  1307.4915              1308.0615              1314.7205
 Red. masses --     1.2561                 1.3985                 1.3201
 Frc consts  --     1.2652                 1.4098                 1.3444
 IR Inten    --    18.2535                20.6832                 8.5478
 Raman Activ --     1.7890                 2.9557                 9.4329

                    88                     89                     90
                     A                      A                      A
 Frequencies --  1320.0326              1328.7524              1341.7552
 Red. masses --     1.5908                 1.2539                 1.4740
 Frc consts  --     1.6332                 1.3044                 1.5635
 IR Inten    --    12.6001                53.7938                 4.7119
 Raman Activ --     1.7959                 5.6734                 5.3118

                    91                     92                     93
                     A                      A                      A
 Frequencies --  1343.4325              1347.7443              1352.1797
 Red. masses --     1.2427                 1.1873                 1.1547
 Frc consts  --     1.3215                 1.2707                 1.2439
 IR Inten    --    28.5267                 8.2625                45.7799
 Raman Activ --     3.5818                 6.6018                 3.0773

                    94                     95                     96
                     A                      A                      A
 Frequencies --  1359.5442              1365.8234              1375.1732
 Red. masses --     1.3515                 1.1770                 1.2203
 Frc consts  --     1.4718                 1.2937                 1.3597
 IR Inten    --    21.5644                11.1814                 7.9542
 Raman Activ --     1.6089                 8.4132                 4.1709

                    97                     98                     99
                     A                      A                      A
 Frequencies --  1382.2064              1391.9600              1405.7688
 Red. masses --     1.2634                 1.4463                 1.6392
 Frc consts  --     1.4221                 1.6510                 1.9086
 IR Inten    --     3.0932                11.3108                 6.6147
 Raman Activ --     2.8909                 6.2038                 5.8392

                   100                    101                    102
                     A                      A                      A
 Frequencies --  1417.4762              1436.0272              1441.1164
 Red. masses --     1.0880                 1.4148                 1.4873
 Frc consts  --     1.2880                 1.7190                 1.8198
 IR Inten    --     6.8612                12.9693                60.7676
 Raman Activ --     1.0553                 1.4548                 1.1647

                   103                    104                    105
                     A                      A                      A
 Frequencies --  1453.0078              1460.9103              1475.7174
 Red. masses --     1.0879                 1.1405                 1.2394
 Frc consts  --     1.3532                 1.4341                 1.5902
 IR Inten    --     4.7963                 2.4269                 5.9604
 Raman Activ --     5.6855                 3.2274                 2.1702

                   106                    107                    108
                     A                      A                      A
 Frequencies --  1505.2655              1528.6695              3243.0087
 Red. masses --     1.3360                 1.2574                 1.0793
 Frc consts  --     1.7836                 1.7312                 6.6878
 IR Inten    --    41.7550                71.5989                19.1847
 Raman Activ --     1.4066                 0.6382                62.9149

                   109                    110                    111
                     A                      A                      A
 Frequencies --  3258.9233              3259.2527              3263.4190
 Red. masses --     1.0611                 1.0580                 1.0816
 Frc consts  --     6.6397                 6.6219                 6.7869
 IR Inten    --    25.4203                38.6784                 3.6855
 Raman Activ --    82.9762               109.5568                37.9074

                   112                    113                    114
                     A                      A                      A
 Frequencies --  3272.4806              3278.6387              3280.9996
 Red. masses --     1.0821                 1.0825                 1.0833
 Frc consts  --     6.8276                 6.8556                 6.8707
 IR Inten    --     5.1789                 6.7841                 3.0902
 Raman Activ --    11.2262               156.4453                53.2836

                   115                    116                    117
                     A                      A                      A
 Frequencies --  3282.0315              3290.6649              3293.7545
 Red. masses --     1.0856                 1.0857                 1.0866
 Frc consts  --     6.8901                 6.9268                 6.9452
 IR Inten    --    27.5128                23.3483                36.4604
 Raman Activ --    25.9694                80.8739                 8.5640

                   118                    119                    120
                     A                      A                      A
 Frequencies --  3301.4810              3307.1522              3311.4122
 Red. masses --     1.0869                 1.0914                 1.1013
 Frc consts  --     6.9800                 7.0329                 7.1149
 IR Inten    --     6.6450                31.6110                53.7289
 Raman Activ --    65.6004                 8.2027                41.7465

                   121                    122                    123
                     A                      A                      A
 Frequencies --  3317.1827              3357.3527              3361.8414
 Red. masses --     1.1024                 1.0682                 1.0637
 Frc consts  --     7.1469                 7.0941                 7.0829
 IR Inten    --    47.1791                53.2726               379.3497
 Raman Activ --    36.8229               199.8275               163.5953

                   124                    125                    126
                     A                      A                      A
 Frequencies --  3364.8051              3371.8011              3372.6487
 Red. masses --     1.0678                 1.0663                 1.0647
 Frc consts  --     7.1228                 7.1429                 7.1354
 IR Inten    --    41.8596                15.6844                38.1872
 Raman Activ --   140.7311               133.2736                52.6730

                   127                    128                    129
                     A                      A                      A
 Frequencies --  3381.9050              3887.6753              3889.1415
 Red. masses --     1.0676                 1.0676                 1.0673
 Frc consts  --     7.1940                 9.5067                 9.5115
 IR Inten    --    91.0863                65.1077                66.8409
 Raman Activ --   107.9080               110.5239               133.2097

 - Thermochemistry -
 -------------------
 Temperature   298.150 Kelvin.  Pressure   1.00000 Atm.
 Atom     1 has atomic number  8 and mass  15.99491

 Molecular mass:   342.11621 amu.
 Principal axes and moments of inertia in atomic units:
                           1         2         3
     Eigenvalues --  4724.00538********************
           X            0.99998  -0.00621   0.00110
           Y            0.00622   0.99998  -0.00295
           Z           -0.00108   0.00295   1.00000
 This molecule is an asymmetric top.
 Rotational symmetry number  1.
 Warning -- assumption of classical behavior for rotation
           may cause significant error
 Rotational temperatures (Kelvin)      0.01833     0.00727     0.00540
 Rotational constants (GHZ):           0.38204     0.15144     0.11249
    7 imaginary frequencies ignored.
 Zero-point vibrational energy     972441.9 (Joules/Mol)
                                  232.41920 (Kcal/Mol)
 Warning -- explicit consideration of  32 degrees of freedom as
           vibrations may cause significant error
 Vibrational temperatures:     37.64    74.59    82.38   157.87   176.33
          (Kelvin)            189.78   234.15   271.31   286.43   315.66
                              367.58   394.39   401.25   429.31   460.00
                              475.37   488.43   494.44   524.31   530.27
                              591.26   603.84   639.53   654.75   694.03
                              714.39   755.10   785.08   806.86   838.94
                              848.25   869.87   904.85   915.77   944.15
                              954.68   963.11   972.43   987.80  1055.62
                             1215.18  1223.74  1351.14  1370.36  1397.63
                             1402.10  1420.65  1439.16  1452.81  1474.72
                             1495.38  1499.20  1512.14  1527.82  1541.06
                             1558.10  1566.74  1579.31  1595.89  1610.30
                             1613.82  1629.31  1640.63  1656.97  1666.82
                             1675.40  1688.37  1692.94  1705.39  1752.62
                             1766.47  1775.16  1802.81  1808.40  1831.54
                             1839.78  1862.56  1881.19  1882.01  1891.59
                             1899.23  1911.78  1930.48  1932.90  1939.10
                             1945.48  1956.08  1965.11  1978.57  1988.68
                             2002.72  2022.59  2039.43  2066.12  2073.44
                             2090.55  2101.92  2123.23  2165.74  2199.41
                             4665.96  4688.86  4689.33  4695.33  4708.36
                             4717.22  4720.62  4722.11  4734.53  4738.97
                             4750.09  4758.25  4764.38  4772.68  4830.48
                             4836.93  4841.20  4851.26  4852.48  4865.80
                             5593.49  5595.60

 Zero-point correction=                           0.370384 (Hartree/Particle)
 Thermal correction to Energy=                    0.389004
 Thermal correction to Enthalpy=                  0.389948
 Thermal correction to Gibbs Free Energy=         0.323869
 Sum of electronic and zero-point Energies=          -1297.577710
 Sum of electronic and thermal Energies=             -1297.559089
 Sum of electronic and thermal Enthalpies=           -1297.558145
 Sum of electronic and thermal Free Energies=        -1297.624224

                     E (Thermal)             CV                S
                      KCal/Mol        Cal/Mol-Kelvin    Cal/Mol-Kelvin
 Total                  244.104             76.771            139.075
 Electronic               0.000              0.000              0.000
 Translational            0.889              2.981             43.384
 Rotational               0.889              2.981             35.156
 Vibrational            242.326             70.809             60.535
 Vibration     1          0.593              1.985              6.101
 Vibration     2          0.596              1.977              4.746
 Vibration     3          0.596              1.975              4.550
 Vibration     4          0.606              1.941              3.274
 Vibration     5          0.610              1.930              3.060
 Vibration     6          0.612              1.921              2.918
 Vibration     7          0.623              1.888              2.518
 Vibration     8          0.633              1.856              2.242
 Vibration     9          0.637              1.841              2.142
 Vibration    10          0.647              1.812              1.964
 Vibration    11          0.666              1.754              1.692
 Vibration    12          0.676              1.721              1.570
 Vibration    13          0.679              1.713              1.541
 Vibration    14          0.691              1.677              1.426
 Vibration    15          0.706              1.636              1.312
 Vibration    16          0.713              1.615              1.258
 Vibration    17          0.719              1.597              1.215
 Vibration    18          0.722              1.588              1.195
 Vibration    19          0.738              1.546              1.103
 Vibration    20          0.741              1.537              1.086
 Vibration    21          0.775              1.446              0.923
 Vibration    22          0.782              1.427              0.893
 Vibration    23          0.804              1.373              0.813
 Vibration    24          0.813              1.350              0.781
 Vibration    25          0.839              1.289              0.704
 Vibration    26          0.852              1.258              0.667
 Vibration    27          0.880              1.195              0.599
 Vibration    28          0.901              1.149              0.553
 Vibration    29          0.916              1.116              0.522
 Vibration    30          0.940              1.068              0.480
 Vibration    31          0.947              1.054              0.468
 Vibration    32          0.963              1.022              0.442

 Normal termination of Gaussian 09 at Fri Apr  1 12:43:01 2016.
