 Gaussian 09, Revision B.01,
 Gaussian 09:  EM64L-G09RevB.01 12-Aug-2010

 -------------------------------------------------
 # freq=raman b3lyp/6-31+g(2d,p) geom=connectivity
 -------------------------------------------------

 -----------------
 423 5000/5000.com
 -----------------
 Symbolic Z-matrix:
 Charge =  0 Multiplicity = 1

                         Standard orientation:
 ---------------------------------------------------------------------
 Center     Atomic      Atomic             Coordinates (Angstroms)
 Number     Number       Type             X           Y           Z
 ---------------------------------------------------------------------
      1          8           0        4.972315   -0.452073   -0.345421
      2          6           0        3.713116   -0.095700    0.241285
      3          6           0        3.263589    1.206006   -0.402100
      4          8           0        4.183363    2.300819   -0.282562
      5          1           0        5.039885    1.813507   -0.450818
      6          6           0        1.896174    1.591902    0.139123
      7          8           0        1.300125    2.804910   -0.342059
      8          1           0        0.463635    2.932769    0.190156
      9          6           0        2.954790   -2.564465    0.359235
     10          8           0        4.222683   -3.090340   -0.057829
     11          1           0        4.263368   -4.086402    0.018656
     12          6           0        2.705711   -1.159923   -0.164072
     13          8           0        1.397143   -0.813212    0.311915
     14          6           0        0.943040    0.453120   -0.186318
     15          8           0       -0.265133    0.607685    0.571268
     16          6           0       -1.537265    0.254650    0.008986
     17          6           0       -1.971848   -1.163185    0.342388
     18          8           0       -1.032119   -2.147317   -0.115082
     19          1           0       -0.157460   -1.741230    0.147241
     20          6           0       -3.370819   -1.460475   -0.171506
     21          8           0       -3.634112   -2.842070    0.111782
     22          1           0       -4.519708   -3.140496   -0.242642
     23          6           0       -2.286265    2.576166   -0.040621
     24          8           0       -1.202947    3.257856    0.607622
     25          1           0       -1.348836    4.233403    0.444557
     26          6           0       -2.708338    1.165865    0.338615
     27          8           0       -3.983235    0.852132   -0.240893
     28          6           0       -4.435835   -0.438486    0.192804
     29          8           0       -5.446856   -0.599867   -0.812220
     30          1           0       -6.295308   -0.754766   -0.390633
     31          1           0        5.599472   -0.666966    0.348910
     32          1           0        2.923555   -2.545338    1.428608
     33          1           0        2.179005   -3.208947    0.001884
     34          1           0        2.675409   -1.201075   -1.232851
     35          1           0        3.784923   -0.005550    1.305059
     36          1           0        3.144613    1.012246   -1.447662
     37          1           0        1.973889    1.664989    1.203792
     38          1           0        0.736686    0.404764   -1.235117
     39          1           0       -3.150778    3.195674    0.076546
     40          1           0       -2.052690    2.554803   -1.084597
     41          1           0       -2.833681    1.145543    1.401053
     42          1           0       -1.414542    0.293302   -1.053250
     43          1           0       -2.007658   -1.236609    1.409265
     44          1           0       -3.295757   -1.404782   -1.237416
     45          1           0       -4.794142   -0.479889    1.200178
 ---------------------------------------------------------------------

 SCF Done:  E(RB3LYP) =  -1297.98058539     A.U. after   13 cycles

 The electronic state is 1-A.
 Alpha  occ. eigenvalues --  -19.18605 -19.18552 -19.18250 -19.17745 -19.17466
 Alpha  occ. eigenvalues --  -19.16939 -19.16091 -19.15821 -19.15185 -19.13474
 Alpha  occ. eigenvalues --  -19.13378 -10.31074 -10.30229 -10.25879 -10.25429
 Alpha  occ. eigenvalues --  -10.25293 -10.25062 -10.24826 -10.24320 -10.24197
 Alpha  occ. eigenvalues --  -10.24137 -10.24048 -10.23401  -1.10072  -1.09701
 Alpha  occ. eigenvalues --   -1.05509  -1.05240  -1.03574  -1.03017  -1.02585
 Alpha  occ. eigenvalues --   -1.02278  -1.01967  -1.00338  -0.99899  -0.82305
 Alpha  occ. eigenvalues --   -0.80639  -0.78924  -0.78302  -0.71554  -0.69934
 Alpha  occ. eigenvalues --   -0.67411  -0.64485  -0.62887  -0.62390  -0.61201
 Alpha  occ. eigenvalues --   -0.60426  -0.56603  -0.55733  -0.54712  -0.54491
 Alpha  occ. eigenvalues --   -0.54056  -0.53497  -0.52660  -0.51357  -0.50890
 Alpha  occ. eigenvalues --   -0.50488  -0.49625  -0.49198  -0.48365  -0.46204
 Alpha  occ. eigenvalues --   -0.45658  -0.44960  -0.44191  -0.43509  -0.42772
 Alpha  occ. eigenvalues --   -0.42528  -0.41333  -0.40765  -0.40022  -0.39255
 Alpha  occ. eigenvalues --   -0.38697  -0.38592  -0.37139  -0.36682  -0.36240
 Alpha  occ. eigenvalues --   -0.35766  -0.34879  -0.34482  -0.33818  -0.33192
 Alpha  occ. eigenvalues --   -0.32583  -0.31027  -0.30476  -0.30015  -0.29648
 Alpha  occ. eigenvalues --   -0.29189  -0.28848  -0.28044  -0.27368  -0.26769
 Alpha  occ. eigenvalues --   -0.25976
 Alpha virt. eigenvalues --   -0.01778  -0.01761  -0.01692   0.00055   0.00367
 Alpha virt. eigenvalues --    0.01053   0.02108   0.02189   0.02933   0.03437
 Alpha virt. eigenvalues --    0.03958   0.04283   0.04962   0.05573   0.05747

 Mulliken atomic charges:
              1
     1  O   -0.543539
     2  C    0.072173
     3  C    0.125874
     4  O   -0.550941
     5  H    0.343591
     6  C   -0.134232
     7  O   -0.560947
     8  H    0.414962
     9  C   -0.206281
    10  O   -0.546915
    11  H    0.346417
    12  C    0.063928
    13  O   -0.240010
    14  C    0.421408
    15  O   -0.264552
    16  C    0.180141
    17  C    0.113509
    18  O   -0.555077
    19  H    0.391375
    20  C    0.064989
    21  O   -0.561413
    22  H    0.333346
    23  C   -0.328752
    24  O   -0.554501
    25  H    0.357109
    26  C   -0.083305
    27  O   -0.227147
    28  C    0.143212
    29  O   -0.508579
    30  H    0.323670
    31  H    0.342925
    32  H    0.142447
    33  H    0.152903
    34  H    0.118768
    35  H    0.124508
    36  H    0.114809
    37  H    0.125915
    38  H    0.134159
    39  H    0.138397
    40  H    0.154761
    41  H    0.121101
    42  H    0.111609
    43  H    0.113279
    44  H    0.134360
    45  H    0.140546
 Sum of Mulliken atomic charges =   0.00000

 Dipole moment (field-independent basis, Debye):
    X=             -2.5735    Y=             -0.8994    Z=              2.4978  Tot=              3.6974
 Quadrupole moment (field-independent basis, Debye-Ang):
   XX=           -111.6683   YY=           -136.7668   ZZ=           -139.2498
   XY=            -16.5646   XZ=              1.1080   YZ=              0.5448

  Exact polarizability: 234.739   1.504 197.965   0.007  -0.690 143.630
 Approx polarizability: 275.740   0.473 259.379  -0.108  -0.520 239.838

 ******    6 imaginary frequencies (negative Signs) ******

                     1                      2                      3
                     A                      A                      A
 Frequencies --  -286.6368              -266.8927              -264.2139
 Red. masses --     1.7523                 1.1606                 1.2297
 Frc consts  --     0.0848                 0.0487                 0.0506
 IR Inten    --     4.2420                77.6778               106.9437
 Raman Activ --     0.0160                 1.0959                 0.4996

                     4                      5                      6
                     A                      A                      A
 Frequencies --  -214.7945               -64.2655               -54.7422
 Red. masses --     1.6797                 5.9111                 6.4398
 Frc consts  --     0.0457                 0.0144                 0.0114
 IR Inten    --    16.7366                 0.4658                 0.9304
 Raman Activ --     0.3075                 0.0247                 0.0361

                     7                      8                      9
                     A                      A                      A
 Frequencies --    18.8647                47.5419                73.4023
 Red. masses --     6.5020                 6.6265                 6.0903
 Frc consts  --     0.0014                 0.0088                 0.0193
 IR Inten    --     0.1552                 1.5297                 2.5504
 Raman Activ --     0.0413                 0.0432                 0.2442

                    10                     11                     12
                     A                      A                      A
 Frequencies --    83.6885               100.7193               114.3721
 Red. masses --     6.5952                 5.9501                 6.1833
 Frc consts  --     0.0272                 0.0356                 0.0477
 IR Inten    --     0.4073                 0.3636                 2.2307
 Raman Activ --     0.0596                 0.1589                 0.0401

                    13                     14                     15
                     A                      A                      A
 Frequencies --   163.0567               172.7348               200.3962
 Red. masses --     6.0182                 6.3536                 7.1184
 Frc consts  --     0.0943                 0.1117                 0.1684
 IR Inten    --     5.1872                 2.0753                 0.1455
 Raman Activ --     0.3333                 0.4544                 1.8580

                    16                     17                     18
                     A                      A                      A
 Frequencies --   202.8015               228.3386               267.4191
 Red. masses --     6.4803                 5.9960                 4.8655
 Frc consts  --     0.1570                 0.1842                 0.2050
 IR Inten    --     0.1581                 1.0011                 7.4737
 Raman Activ --     1.2144                 0.3349                 0.2293

                    19                     20                     21
                     A                      A                      A
 Frequencies --   277.7838               279.8815               295.1548
 Red. masses --     5.4530                 4.0968                 6.1049
 Frc consts  --     0.2479                 0.1891                 0.3133
 IR Inten    --     1.4009                 6.6693                 7.4778
 Raman Activ --     0.6407                 0.0688                 0.4139

                    22                     23                     24
                     A                      A                      A
 Frequencies --   309.0898               320.4970               326.9831
 Red. masses --     5.0897                 5.9680                 6.3262
 Frc consts  --     0.2865                 0.3612                 0.3985
 IR Inten    --     6.2351                 2.5318                 0.0687
 Raman Activ --     0.5016                 2.3901                 1.5056

                    25                     26                     27
                     A                      A                      A
 Frequencies --   335.9955               366.8913               379.7301
 Red. masses --     7.0410                 4.7396                 5.8618
 Frc consts  --     0.4683                 0.3759                 0.4980
 IR Inten    --    10.2656                 5.6835                 1.4787
 Raman Activ --     4.7584                 0.0672                 1.3824

                    28                     29                     30
                     A                      A                      A
 Frequencies --   400.9204               423.5630               428.9345
 Red. masses --     4.8883                 6.5858                 4.7801
 Frc consts  --     0.4629                 0.6961                 0.5182
 IR Inten    --    14.6448                 3.4044                 3.6540
 Raman Activ --     1.9480                 4.1765                 6.7528

                    31                     32                     33
                     A                      A                      A
 Frequencies --   444.2886               478.4053               487.0192
 Red. masses --     4.9491                 4.5477                 4.4473
 Frc consts  --     0.5756                 0.6132                 0.6215
 IR Inten    --     3.5061                 3.6996                 3.5743
 Raman Activ --     1.4979                 6.1763                 0.2288

                    34                     35                     36
                     A                      A                      A
 Frequencies --   510.6464               525.0867               567.4187
 Red. masses --     3.5597                 3.2219                 3.9507
 Frc consts  --     0.5469                 0.5234                 0.7494
 IR Inten    --    11.1784                 8.4965                14.3265
 Raman Activ --     2.5732                 3.1501                 0.9248

                    37                     38                     39
                     A                      A                      A
 Frequencies --   592.4308               599.3670               623.3772
 Red. masses --     2.8626                 6.1490                 3.6687
 Frc consts  --     0.5919                 1.3015                 0.8400
 IR Inten    --    53.6974                 4.4966                 2.2462
 Raman Activ --     0.1588                 0.4992                 0.4802

                    40                     41                     42
                     A                      A                      A
 Frequencies --   644.7571               688.8554               696.6559
 Red. masses --     5.7014                 1.6438                 1.9674
 Frc consts  --     1.3965                 0.4596                 0.5626
 IR Inten    --    42.1966                84.6047                42.2710
 Raman Activ --     0.7211                 1.3405                 3.2113

                    43                     44                     45
                     A                      A                      A
 Frequencies --   709.6364               733.3980               777.9288
 Red. masses --     1.0595                 1.0918                 1.1000
 Frc consts  --     0.3144                 0.3460                 0.3922
 IR Inten    --    92.6382               116.0745                82.2707
 Raman Activ --     2.2181                 1.6842                 1.3340

                    46                     47                     48
                     A                      A                      A
 Frequencies --   838.4296               843.5228               859.1966
 Red. masses --     1.1654                 1.0832                 1.7032
 Frc consts  --     0.4827                 0.4541                 0.7408
 IR Inten    --    82.6058                64.6686                 4.0787
 Raman Activ --     0.6210                 1.6685                 0.7512

                    49                     50                     51
                     A                      A                      A
 Frequencies --   867.0109               919.1629               943.8357
 Red. masses --     1.5957                 5.3483                 5.7252
 Frc consts  --     0.7067                 2.6622                 3.0049
 IR Inten    --    14.6745               136.8829                76.4565
 Raman Activ --     0.8680                 2.5369                 0.9795

                    52                     53                     54
                     A                      A                      A
 Frequencies --   975.4977               978.3664               986.0312
 Red. masses --     6.1979                 4.2134                 6.0562
 Frc consts  --     3.4750                 2.3762                 3.4692
 IR Inten    --   145.0922                91.3236                37.0160
 Raman Activ --     0.7089                 1.4585                 3.8134

                    55                     56                     57
                     A                      A                      A
 Frequencies --   999.6695              1004.5265              1017.2814
 Red. masses --     7.2233                 5.6923                 5.6364
 Frc consts  --     4.2530                 3.3842                 3.4366
 IR Inten    --   278.6936                 5.4417               131.3338
 Raman Activ --     1.6744                 1.5969                 2.1586

                    58                     59                     60
                     A                      A                      A
 Frequencies --  1035.8490              1052.5526              1060.5225
 Red. masses --     4.6379                 5.2280                 4.9519
 Frc consts  --     2.9320                 3.4125                 3.2814
 IR Inten    --   383.4008                26.3377               156.2175
 Raman Activ --     2.8344                 8.7488                 4.9805

                    61                     62                     63
                     A                      A                      A
 Frequencies --  1070.2282              1070.9149              1079.8174
 Red. masses --     4.2786                 3.1970                 4.6488
 Frc consts  --     2.8874                 2.1602                 3.1937
 IR Inten    --    16.3419                33.1758                35.2685
 Raman Activ --    14.2530                 6.1337                12.4047

                    64                     65                     66
                     A                      A                      A
 Frequencies --  1097.2924              1100.5006              1106.9354
 Red. masses --     2.6582                 2.5886                 2.7989
 Frc consts  --     1.8858                 1.8471                 2.0206
 IR Inten    --    33.3425                 4.9699                75.4649
 Raman Activ --     4.7661                 5.5934                 2.3857

                    67                     68                     69
                     A                      A                      A
 Frequencies --  1117.8278              1133.2111              1140.4712
 Red. masses --     2.6327                 2.2166                 2.4850
 Frc consts  --     1.9382                 1.6771                 1.9043
 IR Inten    --    22.6806                39.7457                12.0201
 Raman Activ --     1.3483                 5.3136                 4.3096

                    70                     71                     72
                     A                      A                      A
 Frequencies --  1143.1147              1146.7933              1153.1279
 Red. masses --     2.3964                 1.8125                 2.4517
 Frc consts  --     1.8450                 1.4044                 1.9208
 IR Inten    --    75.4371                16.2747                 2.8958
 Raman Activ --     1.0473                 3.7194                 9.0320

                    73                     74                     75
                     A                      A                      A
 Frequencies --  1160.4093              1173.6010              1180.9901
 Red. masses --     1.8704                 2.0415                 1.8841
 Frc consts  --     1.4839                 1.6567                 1.5483
 IR Inten    --    27.8944                 2.9365                 9.5635
 Raman Activ --     8.1910                 2.9649                 1.6994

                    76                     77                     78
                     A                      A                      A
 Frequencies --  1190.4307              1198.0762              1223.3367
 Red. masses --     1.2919                 1.5115                 1.4357
 Frc consts  --     1.0787                 1.2783                 1.2659
 IR Inten    --    16.2208                29.1705                 6.0774
 Raman Activ --     0.6147                 2.8983                 1.2594

                    79                     80                     81
                     A                      A                      A
 Frequencies --  1225.6028              1232.9026              1252.7521
 Red. masses --     1.2227                 1.2927                 1.2977
 Frc consts  --     1.0821                 1.1577                 1.1999
 IR Inten    --    10.9737                 1.1398                 8.0515
 Raman Activ --     0.7055                 1.8530                 0.9872

                    82                     83                     84
                     A                      A                      A
 Frequencies --  1261.2290              1277.2312              1291.5009
 Red. masses --     1.2817                 1.2359                 1.2212
 Frc consts  --     1.2013                 1.1878                 1.2001
 IR Inten    --     4.8119                 8.7359                 1.6188
 Raman Activ --     5.7984                 1.2977                 1.5423

                    85                     86                     87
                     A                      A                      A
 Frequencies --  1294.3931              1310.2867              1313.3260
 Red. masses --     1.3068                 1.3069                 1.3264
 Frc consts  --     1.2900                 1.3220                 1.3479
 IR Inten    --    12.9150                42.4529                 7.1728
 Raman Activ --     2.0273                 1.2051                 4.3536

                    88                     89                     90
                     A                      A                      A
 Frequencies --  1321.3913              1322.9010              1330.0140
 Red. masses --     1.1830                 1.2413                 1.2556
 Frc consts  --     1.2171                 1.2799                 1.3087
 IR Inten    --    34.4912                27.1111                 7.8881
 Raman Activ --     5.2686                 5.9497                 2.5153

                    91                     92                     93
                     A                      A                      A
 Frequencies --  1338.1600              1343.6060              1359.0709
 Red. masses --     1.3347                 1.2430                 1.4047
 Frc consts  --     1.4081                 1.3221                 1.5287
 IR Inten    --    26.3157                15.7231                 2.3953
 Raman Activ --     4.0571                 6.8751                 6.6417

                    94                     95                     96
                     A                      A                      A
 Frequencies --  1362.7212              1364.1494              1367.2337
 Red. masses --     1.1863                 1.4696                 1.1986
 Frc consts  --     1.2979                 1.6113                 1.3201
 IR Inten    --     8.4171                11.8389                43.1692
 Raman Activ --     1.7766                 8.6056                 3.7967

                    97                     98                     99
                     A                      A                      A
 Frequencies --  1373.1570              1384.6887              1398.9673
 Red. masses --     1.4915                 1.5649                 1.3573
 Frc consts  --     1.6569                 1.7678                 1.5651
 IR Inten    --    18.7244                 6.6286                 2.1083
 Raman Activ --     4.3211                 6.2583                 7.3602

                   100                    101                    102
                     A                      A                      A
 Frequencies --  1416.6128              1444.0920              1474.7243
 Red. masses --     1.5661                 1.4643                 1.0915
 Frc consts  --     1.8517                 1.7992                 1.3987
 IR Inten    --    23.8616                21.7527                 5.4647
 Raman Activ --     1.5798                 1.3666                 4.5867

                   103                    104                    105
                     A                      A                      A
 Frequencies --  1475.5338              1480.0483              1488.0868
 Red. masses --     1.2515                 1.1094                 1.3596
 Frc consts  --     1.6054                 1.4318                 1.7738
 IR Inten    --    44.8667                12.8278                19.2105
 Raman Activ --     2.4708                 3.2085                 0.3514

                   106                    107                    108
                     A                      A                      A
 Frequencies --  1517.6562              1541.5991              3252.3651
 Red. masses --     1.2751                 1.2305                 1.0631
 Frc consts  --     1.7304                 1.7230                 6.6253
 IR Inten    --    46.5686                45.9554               214.2566
 Raman Activ --     1.6844                 1.0210                14.9825

                   109                    110                    111
                     A                      A                      A
 Frequencies --  3258.9601              3259.6267              3261.4867
 Red. masses --     1.0568                 1.0786                 1.0797
 Frc consts  --     6.6128                 6.7521                 6.7666
 IR Inten    --    26.7587                95.0012                 6.5731
 Raman Activ --    70.4195                83.3354               161.9988

                   112                    113                    114
                     A                      A                      A
 Frequencies --  3263.8651              3268.7683              3275.0066
 Red. masses --     1.0767                 1.0719                 1.0829
 Frc consts  --     6.7579                 6.7482                 6.8432
 IR Inten    --    55.8326               302.6047                18.1473
 Raman Activ --   164.2273               149.9291                30.7085

                   115                    116                    117
                     A                      A                      A
 Frequencies --  3280.4412              3281.3188              3285.7666
 Red. masses --     1.0828                 1.0826                 1.0848
 Frc consts  --     6.8653                 6.8679                 6.9005
 IR Inten    --    47.6567                18.6373                61.4248
 Raman Activ --    84.4309                65.3982                12.3395

                   118                    119                    120
                     A                      A                      A
 Frequencies --  3293.9892              3299.4461              3304.5481
 Red. masses --     1.0816                 1.0775                 1.0861
 Frc consts  --     6.9145                 6.9111                 6.9879
 IR Inten    --   206.7696               430.5069               107.3979
 Raman Activ --    20.2219               147.9214                48.1270

                   121                    122                    123
                     A                      A                      A
 Frequencies --  3305.5305              3308.5256              3320.5663
 Red. masses --     1.0895                 1.1018                 1.1072
 Frc consts  --     7.0139                 7.1057                 7.1931
 IR Inten    --    60.4378                88.3159                47.8686
 Raman Activ --    50.9508                28.3238                37.5510

                   124                    125                    126
                     A                      A                      A
 Frequencies --  3363.0165              3369.2844              3374.1823
 Red. masses --     1.0642                 1.0680                 1.0669
 Frc consts  --     7.0913                 7.1431                 7.1568
 IR Inten    --    35.8661                42.4555                72.7231
 Raman Activ --    82.4941               203.2585               109.7266

                   127                    128                    129
                     A                      A                      A
 Frequencies --  3374.8903              3889.8856              3892.1047
 Red. masses --     1.0665                 1.0673                 1.0674
 Frc consts  --     7.1571                 9.5147                 9.5272
 IR Inten    --    19.4865                55.0284                74.9058
 Raman Activ --   203.5630               151.3292                96.9238

 - Thermochemistry -
 -------------------
 Temperature   298.150 Kelvin.  Pressure   1.00000 Atm.
 Atom     1 has atomic number  8 and mass  15.99491

 Molecular mass:   342.11621 amu.
 Principal axes and moments of inertia in atomic units:
                           1         2         3
     Eigenvalues --  4369.40798********************
           X            0.99997  -0.00785   0.00017
           Y            0.00785   0.99997  -0.00164
           Z           -0.00015   0.00164   1.00000
 This molecule is an asymmetric top.
 Rotational symmetry number  1.
 Warning -- assumption of classical behavior for rotation
           may cause significant error
 Rotational temperatures (Kelvin)      0.01982     0.00704     0.00533
 Rotational constants (GHZ):           0.41304     0.14662     0.11101
    6 imaginary frequencies ignored.
 Zero-point vibrational energy     975637.1 (Joules/Mol)
                                  233.18285 (Kcal/Mol)
 Warning -- explicit consideration of  32 degrees of freedom as
           vibrations may cause significant error
 Vibrational temperatures:     27.14    68.40   105.61   120.41   144.91
          (Kelvin)            164.56   234.60   248.53   288.33   291.79
                              328.53   384.76   399.67   402.69   424.66
                              444.71   461.12   470.46   483.42   527.87
                              546.35   576.83   609.41   617.14   639.23
                              688.32   700.71   734.71   755.48   816.39
                              852.37   862.35   896.90   927.66   991.11
                             1002.33  1021.01  1055.19  1119.26  1206.31
                             1213.64  1236.19  1247.43  1322.47  1357.97
                             1403.52  1407.65  1418.68  1438.30  1445.29
                             1463.64  1490.35  1514.39  1525.85  1539.82
                             1540.81  1553.61  1578.76  1583.37  1592.63
                             1608.30  1630.44  1640.88  1644.69  1649.98
                             1659.09  1669.57  1688.55  1699.18  1712.76
                             1723.76  1760.11  1763.37  1773.87  1802.43
                             1814.63  1837.65  1858.18  1862.34  1885.21
                             1889.58  1901.18  1903.36  1913.59  1925.31
                             1933.15  1955.40  1960.65  1962.70  1967.14
                             1975.66  1992.26  2012.80  2038.19  2077.72
                             2121.80  2122.96  2129.46  2141.02  2183.57
                             2218.01  4679.42  4688.91  4689.87  4692.55
                             4695.97  4703.02  4712.00  4719.82  4721.08
                             4727.48  4739.31  4747.16  4754.50  4755.92
                             4760.22  4777.55  4838.62  4847.64  4854.69
                             4855.71  5596.67  5599.86

 Zero-point correction=                           0.371601 (Hartree/Particle)
 Thermal correction to Energy=                    0.390738
 Thermal correction to Enthalpy=                  0.391682
 Thermal correction to Gibbs Free Energy=         0.324070
 Sum of electronic and zero-point Energies=          -1297.608985
 Sum of electronic and thermal Energies=             -1297.589847
 Sum of electronic and thermal Enthalpies=           -1297.588903
 Sum of electronic and thermal Free Energies=        -1297.656516

                     E (Thermal)             CV                S
                      KCal/Mol        Cal/Mol-Kelvin    Cal/Mol-Kelvin
 Total                  245.192             77.694            142.302
 Electronic               0.000              0.000              0.000
 Translational            0.889              2.981             43.384
 Rotational               0.889              2.981             35.124
 Vibrational            243.414             71.732             63.794
 Vibration     1          0.593              1.986              6.750
 Vibration     2          0.595              1.979              4.917
 Vibration     3          0.599              1.967              4.060
 Vibration     4          0.601              1.960              3.802
 Vibration     5          0.604              1.949              3.440
 Vibration     6          0.607              1.938              3.193
 Vibration     7          0.623              1.888              2.514
 Vibration     8          0.626              1.876              2.406
 Vibration     9          0.638              1.839              2.129
 Vibration    10          0.639              1.836              2.108
 Vibration    11          0.651              1.798              1.892
 Vibration    12          0.673              1.733              1.613
 Vibration    13          0.679              1.715              1.547
 Vibration    14          0.680              1.711              1.534
 Vibration    15          0.689              1.683              1.444
 Vibration    16          0.698              1.656              1.367
 Vibration    17          0.706              1.634              1.308
 Vibration    18          0.711              1.622              1.275
 Vibration    19          0.717              1.604              1.231
 Vibration    20          0.740              1.540              1.093
 Vibration    21          0.750              1.513              1.040
 Vibration    22          0.767              1.468              0.959
 Vibration    23          0.786              1.419              0.880
 Vibration    24          0.790              1.407              0.862
 Vibration    25          0.804              1.373              0.813
 Vibration    26          0.835              1.298              0.714
 Vibration    27          0.843              1.279              0.691
 Vibration    28          0.866              1.226              0.632
 Vibration    29          0.880              1.194              0.598
 Vibration    30          0.923              1.102              0.509
 Vibration    31          0.950              1.048              0.463
 Vibration    32          0.957              1.033              0.451

 Normal termination of Gaussian 09 at Sun Mar 27 05:02:24 2016.
