 Gaussian 09, Revision B.01,
 Gaussian 09:  EM64L-G09RevB.01 12-Aug-2010

 ------------------------------------------------
 # freq=raman b3lyp/6-31+g(d,p) geom=connectivity
 ------------------------------------------------

 ------------
 400 7000.com
 ------------
 Symbolic Z-matrix:
 Charge =  0 Multiplicity = 1

                         Standard orientation:
 ---------------------------------------------------------------------
 Center     Atomic      Atomic             Coordinates (Angstroms)
 Number     Number       Type             X           Y           Z
 ---------------------------------------------------------------------
      1          8           0        5.074885   -0.423685   -0.484498
      2          6           0        3.797894   -0.142560    0.107464
      3          6           0        3.222131    1.143076   -0.461965
      4          8           0        4.145360    2.234379   -0.332580
      5          1           0        5.049041    1.839132   -0.164053
      6          6           0        1.888241    1.640790    0.069317
      7          8           0        1.467539    2.896059   -0.482792
      8          1           0        0.490738    2.926663   -0.269991
      9          6           0        2.830830   -2.474921    0.543811
     10          8           0        3.797427   -3.420963    0.063241
     11          1           0        3.335228   -4.308134    0.062271
     12          6           0        2.674168   -1.132429   -0.151741
     13          8           0        1.367199   -0.774575    0.319295
     14          6           0        0.953944    0.481318   -0.239382
     15          8           0       -0.267673    0.673430    0.488342
     16          6           0       -1.515445    0.238336   -0.070702
     17          6           0       -1.925174   -1.154768    0.377112
     18          8           0       -0.905143   -2.162857    0.360862
     19          1           0       -0.005598   -1.727490    0.391675
     20          6           0       -3.181144   -1.454522   -0.425741
     21          8           0       -3.722044   -2.745887   -0.109961
     22          1           0       -4.588032   -3.075421   -0.485883
     23          6           0       -2.396401    2.621643    0.095723
     24          8           0       -1.404616    3.245010    0.924378
     25          1           0       -1.700745    4.199206    0.962430
     26          6           0       -2.631462    1.152908    0.407989
     27          8           0       -3.834960    0.915335   -0.335870
     28          6           0       -4.211162   -0.425173    0.010483
     29          8           0       -5.367366   -0.717404   -0.788009
     30          1           0       -6.134891   -0.808215   -0.218573
     31          1           0        5.737310   -0.502203    0.205884
     32          1           0        1.876151   -2.957511    0.519410
     33          1           0        3.065527   -2.275194    1.568470
     34          1           0        2.617003   -1.303366   -1.206451
     35          1           0        3.923645   -0.029397    1.164006
     36          1           0        3.088050    0.974787   -1.510107
     37          1           0        1.962072    1.745619    1.131607
     38          1           0        0.768043    0.396990   -1.289730
     39          1           0       -3.320423    3.147120    0.218017
     40          1           0       -2.088322    2.706826   -0.925420
     41          1           0       -2.806585    1.016422    1.454700
     42          1           0       -1.459966    0.269569   -1.138807
     43          1           0       -2.233650   -1.064851    1.397728
     44          1           0       -2.987538   -1.372043   -1.474843
     45          1           0       -4.430445   -0.511455    1.054212
 ---------------------------------------------------------------------

 SCF Done:  E(RB3LYP) =  -1297.92381585     A.U. after   14 cycles

 The electronic state is 1-A.
 Alpha  occ. eigenvalues --  -19.21259 -19.19653 -19.19003 -19.18823 -19.18365
 Alpha  occ. eigenvalues --  -19.18304 -19.17197 -19.16787 -19.15981 -19.15782
 Alpha  occ. eigenvalues --  -19.14213 -10.31864 -10.30722 -10.27207 -10.26563
 Alpha  occ. eigenvalues --  -10.26272 -10.26128 -10.25543 -10.25353 -10.24935
 Alpha  occ. eigenvalues --  -10.24918 -10.24488 -10.24423  -1.11513  -1.09527
 Alpha  occ. eigenvalues --   -1.06637  -1.05035  -1.04124  -1.03481  -1.03157
 Alpha  occ. eigenvalues --   -1.02818  -1.01716  -1.01120  -0.99966  -0.83216
 Alpha  occ. eigenvalues --   -0.81915  -0.79898  -0.78739  -0.71717  -0.70427
 Alpha  occ. eigenvalues --   -0.67768  -0.64801  -0.63449  -0.63091  -0.61997
 Alpha  occ. eigenvalues --   -0.61508  -0.56867  -0.56375  -0.55614  -0.55476
 Alpha  occ. eigenvalues --   -0.54472  -0.53960  -0.52883  -0.51569  -0.51521
 Alpha  occ. eigenvalues --   -0.50557  -0.50207  -0.49709  -0.49111  -0.47022
 Alpha  occ. eigenvalues --   -0.45899  -0.45195  -0.44807  -0.43974  -0.43186
 Alpha  occ. eigenvalues --   -0.43039  -0.41793  -0.41646  -0.40874  -0.40426
 Alpha  occ. eigenvalues --   -0.39299  -0.37672  -0.37361  -0.37021  -0.36157
 Alpha  occ. eigenvalues --   -0.36034  -0.35492  -0.34826  -0.34225  -0.33716
 Alpha  occ. eigenvalues --   -0.32378  -0.32008  -0.31270  -0.30697  -0.30037
 Alpha  occ. eigenvalues --   -0.29533  -0.29081  -0.28486  -0.27940  -0.27358
 Alpha  occ. eigenvalues --   -0.26614
 Alpha virt. eigenvalues --   -0.02589  -0.01860  -0.01716  -0.00723  -0.00049
 Alpha virt. eigenvalues --    0.00846   0.01559   0.02031   0.02450   0.03439
 Alpha virt. eigenvalues --    0.03985   0.04301   0.04569   0.05255   0.05476

 Mulliken atomic charges:
              1
     1  O   -0.509695
     2  C   -0.319276
     3  C    0.141257
     4  O   -0.494981
     5  H    0.344363
     6  C    0.048460
     7  O   -0.477849
     8  H    0.388440
     9  C   -0.221710
    10  O   -0.522936
    11  H    0.350482
    12  C    0.363570
    13  O   -0.416026
    14  C    0.184794
    15  O   -0.324113
    16  C   -0.281834
    17  C   -0.029090
    18  O   -0.546744
    19  H    0.447061
    20  C    0.123833
    21  O   -0.533141
    22  H    0.369791
    23  C   -0.060699
    24  O   -0.560347
    25  H    0.369019
    26  C    0.154511
    27  O   -0.287427
    28  C    0.229475
    29  O   -0.582095
    30  H    0.360996
    31  H    0.370911
    32  H    0.132794
    33  H    0.135555
    34  H    0.143366
    35  H    0.135855
    36  H    0.131584
    37  H    0.148516
    38  H    0.134600
    39  H    0.140664
    40  H    0.138384
    41  H    0.146807
    42  H    0.129482
    43  H    0.125037
    44  H    0.141389
    45  H    0.136965
 Sum of Mulliken atomic charges =   0.00000

 Dipole moment (field-independent basis, Debye):
    X=             -2.5197    Y=             -0.0880    Z=              2.1671  Tot=              3.3246
 Quadrupole moment (field-independent basis, Debye-Ang):
   XX=           -117.5453   YY=           -143.3326   ZZ=           -140.1232
   XY=            -11.5607   XZ=              3.6649   YZ=              3.8331

  Exact polarizability: 225.782   2.348 192.752   1.682   0.331 141.827
 Approx polarizability: 265.279   2.079 249.500   2.278  -0.194 230.452

 ******    7 imaginary frequencies (negative Signs) ******

                     1                      2                      3
                     A                      A                      A
 Frequencies --  -282.9537              -258.3460              -255.9799
 Red. masses --     1.5514                 1.2982                 1.1371
 Frc consts  --     0.0732                 0.0510                 0.0439
 IR Inten    --    39.0344                46.0235               155.7074
 Raman Activ --     0.4415                 0.6675                 0.9560

                     4                      5                      6
                     A                      A                      A
 Frequencies --  -224.5902               -81.4460               -72.2989
 Red. masses --     1.9254                 6.8506                 6.3232
 Frc consts  --     0.0572                 0.0268                 0.0195
 IR Inten    --     3.1764                 1.6173                 0.5470
 Raman Activ --     0.1358                 0.0215                 0.0436

                     7                      8                      9
                     A                      A                      A
 Frequencies --   -45.6352                 5.2237                51.0626
 Red. masses --     6.2957                 6.4184                 6.4540
 Frc consts  --     0.0077                 0.0001                 0.0099
 IR Inten    --     1.9085                 0.8419                 0.6188
 Raman Activ --     0.0883                 0.1473                 0.0725

                    10                     11                     12
                     A                      A                      A
 Frequencies --    76.0665                86.4630               122.9813
 Red. masses --     7.6108                 6.5494                 5.9200
 Frc consts  --     0.0259                 0.0288                 0.0528
 IR Inten    --     0.3540                 0.1904                 0.4486
 Raman Activ --     0.0727                 0.1128                 0.2610

                    13                     14                     15
                     A                      A                      A
 Frequencies --   142.5999               169.6277               187.8525
 Red. masses --     6.1859                 6.8923                 5.7241
 Frc consts  --     0.0741                 0.1168                 0.1190
 IR Inten    --     1.2443                 2.7132                 1.3767
 Raman Activ --     0.1243                 0.0954                 1.2219

                    16                     17                     18
                     A                      A                      A
 Frequencies --   196.2009               233.8538               259.7052
 Red. masses --     6.6163                 6.3036                 4.2660
 Frc consts  --     0.1501                 0.2031                 0.1695
 IR Inten    --     1.3831                 1.5927                13.6325
 Raman Activ --     1.1991                 1.1733                 0.3683

                    19                     20                     21
                     A                      A                      A
 Frequencies --   292.2150               297.1972               305.9093
 Red. masses --     4.1600                 5.1553                 4.9203
 Frc consts  --     0.2093                 0.2683                 0.2713
 IR Inten    --     5.6622                 2.0829                10.9907
 Raman Activ --     0.6113                 0.2434                 0.3828

                    22                     23                     24
                     A                      A                      A
 Frequencies --   322.5381               328.4398               336.8141
 Red. masses --     4.7184                 5.8114                 6.9743
 Frc consts  --     0.2892                 0.3694                 0.4662
 IR Inten    --     1.6901                 3.0836                 5.9301
 Raman Activ --     1.6712                 1.8648                 0.4313

                    25                     26                     27
                     A                      A                      A
 Frequencies --   340.0840               356.2372               367.1060
 Red. masses --     6.2128                 5.0663                 5.0159
 Frc consts  --     0.4234                 0.3788                 0.3983
 IR Inten    --     6.4254                 5.7752                 5.2966
 Raman Activ --     4.3086                 0.4429                 1.2275

                    28                     29                     30
                     A                      A                      A
 Frequencies --   406.4835               420.0676               434.4584
 Red. masses --     5.4963                 5.9136                 4.7484
 Frc consts  --     0.5351                 0.6148                 0.5281
 IR Inten    --    10.7809                 4.0221                 1.1735
 Raman Activ --     2.4872                 6.2460                 1.6023

                    31                     32                     33
                     A                      A                      A
 Frequencies --   450.2134               485.6626               501.9174
 Red. masses --     6.6164                 4.0692                 5.0961
 Frc consts  --     0.7901                 0.5655                 0.7564
 IR Inten    --     2.5295                 5.8886                10.2144
 Raman Activ --     6.5777                 2.4370                 0.6091

                    34                     35                     36
                     A                      A                      A
 Frequencies --   521.4411               529.0696               569.9218
 Red. masses --     3.3989                 3.2286                 3.6818
 Frc consts  --     0.5445                 0.5325                 0.7046
 IR Inten    --     1.8721                17.6140                13.0656
 Raman Activ --     5.5714                 1.6299                 0.7176

                    37                     38                     39
                     A                      A                      A
 Frequencies --   592.5028               605.0150               620.1151
 Red. masses --     2.8645                 5.9557                 2.5680
 Frc consts  --     0.5925                 1.2844                 0.5818
 IR Inten    --    30.7182                 2.6690                31.6587
 Raman Activ --     0.5687                 1.0076                 0.1368

                    40                     41                     42
                     A                      A                      A
 Frequencies --   632.0457               642.4369               668.8596
 Red. masses --     1.9408                 1.8833                 1.1799
 Frc consts  --     0.4568                 0.4580                 0.3110
 IR Inten    --    71.9646                55.4736                86.6346
 Raman Activ --     1.9686                 1.9942                 1.5273

                    43                     44                     45
                     A                      A                      A
 Frequencies --   674.7496               701.3135               736.9937
 Red. masses --     1.1082                 3.9748                 1.0811
 Frc consts  --     0.2973                 1.1518                 0.3460
 IR Inten    --    65.0403                19.1470                67.9880
 Raman Activ --     1.5093                 1.6172                 2.2990

                    46                     47                     48
                     A                      A                      A
 Frequencies --   742.5160               753.5795               847.1916
 Red. masses --     1.0782                 1.0915                 1.7947
 Frc consts  --     0.3502                 0.3652                 0.7589
 IR Inten    --   165.6725                29.5351                 3.4142
 Raman Activ --     0.4902                 0.4105                 0.5209

                    49                     50                     51
                     A                      A                      A
 Frequencies --   865.7015               937.6119               969.7813
 Red. masses --     1.7229                 5.8748                 5.0891
 Frc consts  --     0.7608                 3.0429                 2.8199
 IR Inten    --     4.7244                25.7373                43.2789
 Raman Activ --     0.6420                 2.1318                 1.2065

                    52                     53                     54
                     A                      A                      A
 Frequencies --   990.8107               994.6998               999.6352
 Red. masses --     5.9283                 3.8272                 4.1879
 Frc consts  --     3.4290                 2.2311                 2.4656
 IR Inten    --   107.2966               130.2013                98.5011
 Raman Activ --     1.8601                 1.9100                 1.4326

                    55                     56                     57
                     A                      A                      A
 Frequencies --  1010.3063              1025.0316              1034.4122
 Red. masses --     6.2190                 5.5820                 4.8608
 Frc consts  --     3.7400                 3.4555                 3.0644
 IR Inten    --   205.4811                30.4628               146.7123
 Raman Activ --     4.0205                 1.5016                 2.1081

                    58                     59                     60
                     A                      A                      A
 Frequencies --  1048.0248              1066.1908              1068.9240
 Red. masses --     2.8329                 2.6096                 5.4530
 Frc consts  --     1.8332                 1.7478                 3.6710
 IR Inten    --   152.5781               104.6125               230.3174
 Raman Activ --     6.9400                 2.3343                 4.0474

                    61                     62                     63
                     A                      A                      A
 Frequencies --  1075.8536              1081.9159              1093.2083
 Red. masses --     2.7397                 4.6440                 3.4657
 Frc consts  --     1.8683                 3.2028                 2.4403
 IR Inten    --    17.4106                13.3655               151.8778
 Raman Activ --    16.3985                 0.8199                 3.0431

                    64                     65                     66
                     A                      A                      A
 Frequencies --  1096.8363              1101.8340              1112.4813
 Red. masses --     3.1141                 2.9252                 3.0527
 Frc consts  --     2.2073                 2.0924                 2.2260
 IR Inten    --    18.8345                37.6436               202.2662
 Raman Activ --     6.6467                 5.8824                 5.4794

                    67                     68                     69
                     A                      A                      A
 Frequencies --  1117.9425              1129.7414              1137.1663
 Red. masses --     3.2361                 1.9387                 2.1676
 Frc consts  --     2.3830                 1.4579                 1.6515
 IR Inten    --    15.0540                36.5836                13.1321
 Raman Activ --    17.0113                 6.5418                 8.3635

                    70                     71                     72
                     A                      A                      A
 Frequencies --  1143.9160              1149.9994              1157.1795
 Red. masses --     2.3711                 2.1728                 1.9788
 Frc consts  --     1.8281                 1.6930                 1.5612
 IR Inten    --    58.4370                22.3668                15.7170
 Raman Activ --     3.0528                 3.1813                 4.1785

                    73                     74                     75
                     A                      A                      A
 Frequencies --  1163.9685              1172.5361              1177.5480
 Red. masses --     2.0640                 2.0659                 2.3299
 Frc consts  --     1.6476                 1.6734                 1.9035
 IR Inten    --    19.7900                16.0620                16.0590
 Raman Activ --     4.0289                 3.0200                 2.8938

                    76                     77                     78
                     A                      A                      A
 Frequencies --  1209.1725              1216.8523              1222.1184
 Red. masses --     1.5886                 1.5324                 1.5939
 Frc consts  --     1.3685                 1.3369                 1.4026
 IR Inten    --     6.5820                11.5912                34.1449
 Raman Activ --     2.5976                 0.8141                 4.6409

                    79                     80                     81
                     A                      A                      A
 Frequencies --  1233.4362              1236.1449              1244.4297
 Red. masses --     1.3140                 1.2035                 1.2687
 Frc consts  --     1.1778                 1.0835                 1.1576
 IR Inten    --    17.6789                14.4970                24.5232
 Raman Activ --     1.8226                 3.0837                 1.1483

                    82                     83                     84
                     A                      A                      A
 Frequencies --  1263.0607              1278.3912              1287.4882
 Red. masses --     1.3128                 1.2562                 1.3740
 Frc consts  --     1.2340                 1.2096                 1.3419
 IR Inten    --     5.3163                 3.0206                10.6578
 Raman Activ --     6.2793                 4.3228                 2.1077

                    85                     86                     87
                     A                      A                      A
 Frequencies --  1291.2100              1300.3015              1310.2341
 Red. masses --     1.3572                 1.3533                 1.3230
 Frc consts  --     1.3332                 1.3481                 1.3382
 IR Inten    --     4.6985                 2.3531                44.4091
 Raman Activ --     0.3336                 3.3242                 1.9370

                    88                     89                     90
                     A                      A                      A
 Frequencies --  1315.4008              1322.7522              1336.4665
 Red. masses --     1.3914                 1.2865                 1.3699
 Frc consts  --     1.4184                 1.3262                 1.4416
 IR Inten    --     6.4681                32.3162                 2.7907
 Raman Activ --     3.2350                 7.9043                 5.3181

                    91                     92                     93
                     A                      A                      A
 Frequencies --  1338.1117              1348.8126              1354.1820
 Red. masses --     1.2671                 1.1725                 1.2377
 Frc consts  --     1.3367                 1.2568                 1.3373
 IR Inten    --    11.6749                40.4450                28.7814
 Raman Activ --     8.8327                 2.1217                 1.8472

                    94                     95                     96
                     A                      A                      A
 Frequencies --  1362.4877              1366.2987              1378.6321
 Red. masses --     1.4954                 1.4529                 1.1369
 Frc consts  --     1.6356                 1.5980                 1.2731
 IR Inten    --     4.4868                12.0708                29.7144
 Raman Activ --    14.3495                 4.1294                 3.4671

                    97                     98                     99
                     A                      A                      A
 Frequencies --  1378.8933              1387.5750              1409.7916
 Red. masses --     1.5636                 1.5308                 1.1347
 Frc consts  --     1.7516                 1.7366                 1.3288
 IR Inten    --    14.1072                10.0497                15.1058
 Raman Activ --     4.3020                 6.5115                 2.4665

                   100                    101                    102
                     A                      A                      A
 Frequencies --  1416.8163              1446.4002              1467.8126
 Red. masses --     1.3989                 1.4047                 1.3344
 Frc consts  --     1.6545                 1.7315                 1.6938
 IR Inten    --    20.4454                44.3044                28.9368
 Raman Activ --     3.9896                 1.0727                 2.1081

                   103                    104                    105
                     A                      A                      A
 Frequencies --  1471.2942              1475.0233              1480.0630
 Red. masses --     1.3703                 1.0803                 1.1905
 Frc consts  --     1.7477                 1.3849                 1.5365
 IR Inten    --    17.6648                 5.2537                 9.9804
 Raman Activ --     2.1037                 3.6982                 3.2148

                   106                    107                    108
                     A                      A                      A
 Frequencies --  1482.4544              1509.7772              3267.2204
 Red. masses --     1.2403                 1.2129                 1.0590
 Frc consts  --     1.6059                 1.6289                 6.6604
 IR Inten    --    36.7434                33.6322                16.8601
 Raman Activ --     1.3927                 2.5923                58.5765

                   109                    110                    111
                     A                      A                      A
 Frequencies --  3269.2247              3270.6115              3276.7163
 Red. masses --     1.0658                 1.0710                 1.0818
 Frc consts  --     6.7115                 6.7497                 6.8436
 IR Inten    --    67.8838               212.1604                14.7926
 Raman Activ --    13.7857               186.1079                68.3061

                   112                    113                    114
                     A                      A                      A
 Frequencies --  3288.3759              3294.0016              3294.9238
 Red. masses --     1.0805                 1.0836                 1.0778
 Frc consts  --     6.8841                 6.9276                 6.8939
 IR Inten    --   144.7523                50.6608               309.5357
 Raman Activ --    93.3083                23.9392                59.7998

                   115                    116                    117
                     A                      A                      A
 Frequencies --  3301.7434              3302.9327              3304.3104
 Red. masses --     1.0837                 1.0869                 1.0855
 Frc consts  --     6.9608                 6.9862                 6.9829
 IR Inten    --    57.4243                11.6371                57.1216
 Raman Activ --   114.1168                17.6817                95.2820

                   118                    119                    120
                     A                      A                      A
 Frequencies --  3305.3453              3315.4340              3318.3084
 Red. masses --     1.0852                 1.0871                 1.0877
 Frc consts  --     6.9852                 7.0402                 7.0564
 IR Inten    --    19.2668                62.5771                87.4234
 Raman Activ --   147.6931                13.4141                 9.1744

                   121                    122                    123
                     A                      A                      A
 Frequencies --  3325.6552              3332.2225              3369.1460
 Red. masses --     1.1047                 1.1077                 1.0666
 Frc consts  --     7.1989                 7.2467                 7.1330
 IR Inten    --    67.9720                53.5937               248.0600
 Raman Activ --    30.2276                35.2838               140.7251

                   124                    125                    126
                     A                      A                      A
 Frequencies --  3376.2978              3390.1326              3394.0300
 Red. masses --     1.0658                 1.0693                 1.0679
 Frc consts  --     7.1582                 7.2408                 7.2482
 IR Inten    --    21.2697                40.5762                68.5665
 Raman Activ --   108.2705               108.5061               196.3210

                   127                    128                    129
                     A                      A                      A
 Frequencies --  3396.5629              3918.3491              3919.6439
 Red. masses --     1.0673                 1.0676                 1.0680
 Frc consts  --     7.2546                 9.6572                 9.6673
 IR Inten    --    28.3589                67.7829                84.6916
 Raman Activ --   149.5949               117.8824               100.8980

 - Thermochemistry -
 -------------------
 Temperature   298.150 Kelvin.  Pressure   1.00000 Atm.
 Atom     1 has atomic number  8 and mass  15.99491

 Molecular mass:   342.11621 amu.
 Principal axes and moments of inertia in atomic units:
                           1         2         3
     Eigenvalues --  4536.36547********************
           X            0.99998  -0.00689   0.00047
           Y            0.00689   0.99998  -0.00059
           Z           -0.00047   0.00059   1.00000
 This molecule is an asymmetric top.
 Rotational symmetry number  1.
 Warning -- assumption of classical behavior for rotation
           may cause significant error
 Rotational temperatures (Kelvin)      0.01909     0.00723     0.00543
 Rotational constants (GHZ):           0.39784     0.15059     0.11304
    7 imaginary frequencies ignored.
 Zero-point vibrational energy     976817.1 (Joules/Mol)
                                  233.46488 (Kcal/Mol)
 Warning -- explicit consideration of  32 degrees of freedom as
           vibrations may cause significant error
 Vibrational temperatures:      7.52    73.47   109.44   124.40   176.94
          (Kelvin)            205.17   244.06   270.28   282.29   336.46
                              373.66   420.43   427.60   440.13   464.06
                              472.55   484.60   489.30   512.55   528.18
                              584.84   604.38   625.09   647.76   698.76
                              722.15   750.24   761.21   819.99   852.48
                              870.48   892.21   909.37   924.32   962.34
                              970.81  1009.03  1060.37  1068.31  1084.23
                             1218.92  1245.55  1349.01  1395.30  1425.55
                             1431.15  1438.25  1453.60  1474.79  1488.29
                             1507.87  1534.01  1537.94  1547.91  1556.63
                             1572.88  1578.10  1585.29  1600.61  1608.47
                             1625.44  1636.13  1645.84  1654.59  1664.92
                             1674.69  1687.02  1694.23  1739.73  1750.78
                             1758.35  1774.64  1778.53  1790.45  1817.26
                             1839.32  1852.41  1857.76  1870.84  1885.13
                             1892.57  1903.14  1922.87  1925.24  1940.64
                             1948.36  1960.31  1965.80  1983.54  1983.92
                             1996.41  2028.37  2038.48  2081.04  2111.85
                             2116.86  2122.23  2129.48  2132.92  2172.23
                             4700.80  4703.68  4705.67  4714.46  4731.23
                             4739.33  4740.65  4750.47  4752.18  4754.16
                             4755.65  4770.16  4774.30  4784.87  4794.32
                             4847.44  4857.73  4877.64  4883.25  4886.89
                             5637.62  5639.49

 Zero-point correction=                           0.372050 (Hartree/Particle)
 Thermal correction to Energy=                    0.390517
 Thermal correction to Enthalpy=                  0.391461
 Thermal correction to Gibbs Free Energy=         0.324319
 Sum of electronic and zero-point Energies=          -1297.551766
 Sum of electronic and thermal Energies=             -1297.533299
 Sum of electronic and thermal Enthalpies=           -1297.532354
 Sum of electronic and thermal Free Energies=        -1297.599497

                     E (Thermal)             CV                S
                      KCal/Mol        Cal/Mol-Kelvin    Cal/Mol-Kelvin
 Total                  245.053             76.043            141.313
 Electronic               0.000              0.000              0.000
 Translational            0.889              2.981             43.384
 Rotational               0.889              2.981             35.117
 Vibrational            243.276             70.081             62.812
 Vibration     1          0.593              1.987              9.301
 Vibration     2          0.595              1.977              4.776
 Vibration     3          0.599              1.965              3.990
 Vibration     4          0.601              1.959              3.739
 Vibration     5          0.610              1.930              3.053
 Vibration     6          0.616              1.911              2.769
 Vibration     7          0.625              1.880              2.440
 Vibration     8          0.633              1.857              2.249
 Vibration     9          0.636              1.845              2.168
 Vibration    10          0.654              1.789              1.849
 Vibration    11          0.668              1.746              1.664
 Vibration    12          0.688              1.688              1.461
 Vibration    13          0.691              1.679              1.433
 Vibration    14          0.696              1.662              1.384
 Vibration    15          0.708              1.630              1.297
 Vibration    16          0.712              1.619              1.268
 Vibration    17          0.718              1.602              1.227
 Vibration    18          0.720              1.595              1.212
 Vibration    19          0.732              1.562              1.138
 Vibration    20          0.740              1.540              1.092
 Vibration    21          0.771              1.456              0.939
 Vibration    22          0.783              1.427              0.892
 Vibration    23          0.795              1.395              0.844
 Vibration    24          0.809              1.360              0.795
 Vibration    25          0.842              1.282              0.695
 Vibration    26          0.857              1.246              0.653
 Vibration    27          0.876              1.203              0.607
 Vibration    28          0.884              1.186              0.589
 Vibration    29          0.926              1.096              0.504
 Vibration    30          0.950              1.048              0.463
 Vibration    31          0.964              1.021              0.441
 Vibration    32          0.980              0.989              0.416

 Normal termination of Gaussian 09 at Tue Mar  1 16:31:02 2016.
