 Gaussian 09, Revision B.01,
 Gaussian 09:  EM64L-G09RevB.01 12-Aug-2010

 -------------------------------------------------
 # freq=raman b3lyp/6-31+g(2d,p) geom=connectivity
 -------------------------------------------------

 -----------------
 423 7231/7231.com
 -----------------
 Symbolic Z-matrix:
 Charge =  0 Multiplicity = 1

                         Standard orientation:
 ---------------------------------------------------------------------
 Center     Atomic      Atomic             Coordinates (Angstroms)
 Number     Number       Type             X           Y           Z
 ---------------------------------------------------------------------
      1          8           0       -4.984061   -0.411561    0.501716
      2          6           0       -3.733407   -0.096974   -0.126783
      3          6           0       -3.237032    1.236702    0.406324
      4          8           0       -4.150925    2.277143    0.028406
      5          1           0       -5.030236    1.991031    0.407217
      6          6           0       -1.893942    1.608169   -0.199790
      7          8           0       -1.321903    2.727441    0.491651
      8          1           0       -0.607380    3.001218   -0.152691
      9          6           0       -2.990127   -2.537371   -0.372628
     10          8           0       -4.025054   -3.182055    0.383238
     11          1           0       -3.817406   -4.141381    0.574023
     12          6           0       -2.687310   -1.155094    0.182524
     13          8           0       -1.447926   -0.803065   -0.449149
     14          6           0       -0.922061    0.455688   -0.002541
     15          8           0        0.298243    0.632167   -0.735974
     16          6           0        1.498674    0.278208   -0.033736
     17          6           0        1.916948   -1.094956   -0.533111
     18          8           0        0.975278   -2.138357   -0.246584
     19          1           0        0.130576   -1.760287   -0.626856
     20          6           0        3.200548   -1.476011    0.185584
     21          8           0        3.622624   -2.743131   -0.338148
     22          1           0        4.469698   -3.022235    0.114208
     23          6           0        2.484330    2.659062    0.128258
     24          8           0        1.430968    3.332919   -0.577002
     25          1           0        1.621718    4.313920   -0.533721
     26          6           0        2.678466    1.205682   -0.273009
     27          8           0        3.786656    0.742974    0.512287
     28          6           0        4.350379   -0.491073    0.046557
     29          8           0        5.400065   -0.810287    0.972073
     30          1           0        6.183731   -1.078820    0.486937
     31          1           0        4.703342   -0.418035   -0.960906
     32          1           0        2.982165   -1.594814    1.226302
     33          1           0        2.095698   -1.053497   -1.587260
     34          1           0        1.294251    0.227417    1.015326
     35          1           0        2.945672    1.165198   -1.308317
     36          1           0        3.399792    3.184207   -0.047956
     37          1           0        2.267829    2.695216    1.175502
     38          1           0       -5.633410   -0.631733   -0.170199
     39          1           0       -3.305028   -2.445188   -1.391077
     40          1           0       -2.102716   -3.133835   -0.332232
     41          1           0       -2.544095   -1.218107    1.241023
     42          1           0       -3.872047   -0.029728   -1.185630
     43          1           0       -3.155396    1.194518    1.472371
     44          1           0       -2.002721    1.829400   -1.241002
     45          1           0       -0.688558    0.379844    1.038912
 ---------------------------------------------------------------------

 SCF Done:  E(RB3LYP) =  -1298.01514018     A.U. after   13 cycles

 The electronic state is 1-A.
 Alpha  occ. eigenvalues --  -19.18356 -19.17820 -19.17676 -19.17478 -19.17304
 Alpha  occ. eigenvalues --  -19.16758 -19.15793 -19.15202 -19.15086 -19.14784
 Alpha  occ. eigenvalues --  -19.13845 -10.30407 -10.29741 -10.25828 -10.24920
 Alpha  occ. eigenvalues --  -10.24912 -10.24896 -10.24673 -10.24329 -10.24199
 Alpha  occ. eigenvalues --  -10.23972 -10.23640 -10.23603  -1.09517  -1.08869
 Alpha  occ. eigenvalues --   -1.05180  -1.04428  -1.03652  -1.03246  -1.02765
 Alpha  occ. eigenvalues --   -1.02291  -1.02100  -1.00959  -1.00192  -0.81675
 Alpha  occ. eigenvalues --   -0.80113  -0.78684  -0.77899  -0.71171  -0.69731
 Alpha  occ. eigenvalues --   -0.67009  -0.64466  -0.62646  -0.62400  -0.61108
 Alpha  occ. eigenvalues --   -0.60224  -0.56301  -0.55253  -0.54503  -0.54168
 Alpha  occ. eigenvalues --   -0.53870  -0.53119  -0.52687  -0.51654  -0.51400
 Alpha  occ. eigenvalues --   -0.49945  -0.49540  -0.48878  -0.48220  -0.45907
 Alpha  occ. eigenvalues --   -0.45402  -0.44721  -0.44150  -0.43422  -0.42651
 Alpha  occ. eigenvalues --   -0.42477  -0.41909  -0.40796  -0.39967  -0.39261
 Alpha  occ. eigenvalues --   -0.38439  -0.37809  -0.37256  -0.36012  -0.35955
 Alpha  occ. eigenvalues --   -0.35301  -0.34909  -0.34593  -0.34434  -0.33974
 Alpha  occ. eigenvalues --   -0.32904  -0.31369  -0.30331  -0.30061  -0.29602
 Alpha  occ. eigenvalues --   -0.29504  -0.28818  -0.28260  -0.27651  -0.26434
 Alpha  occ. eigenvalues --   -0.26043
 Alpha virt. eigenvalues --   -0.01881  -0.01682  -0.01444   0.00043   0.00629
 Alpha virt. eigenvalues --    0.01132   0.02048   0.02257   0.03278   0.03623
 Alpha virt. eigenvalues --    0.03690   0.04297   0.05229   0.05345   0.05811

 Mulliken atomic charges:
              1
     1  O   -0.544574
     2  C   -0.036321
     3  C    0.282496
     4  O   -0.546915
     5  H    0.340861
     6  C   -0.337157
     7  O   -0.504695
     8  H    0.375740
     9  C   -0.255729
    10  O   -0.530834
    11  H    0.341075
    12  C    0.228029
    13  O   -0.270615
    14  C    0.424797
    15  O   -0.249113
    16  C    0.204992
    17  C    0.001469
    18  O   -0.523279
    19  H    0.372657
    20  C    0.203284
    21  O   -0.556479
    22  H    0.328390
    23  C   -0.268705
    24  O   -0.548199
    25  H    0.352540
    26  C   -0.034726
    27  O   -0.248927
    28  C    0.032626
    29  O   -0.544529
    30  H    0.336046
    31  H    0.135742
    32  H    0.132209
    33  H    0.122459
    34  H    0.113297
    35  H    0.118041
    36  H    0.144301
    37  H    0.156946
    38  H    0.339835
    39  H    0.142440
    40  H    0.149297
    41  H    0.116457
    42  H    0.121107
    43  H    0.128985
    44  H    0.139230
    45  H    0.115451
 Sum of Mulliken atomic charges =   0.00000

 Dipole moment (field-independent basis, Debye):
    X=              2.2389    Y=              0.1277    Z=             -1.8698  Tot=              2.9198
 Quadrupole moment (field-independent basis, Debye-Ang):
   XX=           -114.8015   YY=           -134.0974   ZZ=           -140.6066
   XY=             12.5081   XZ=             -0.5182   YZ=             -3.5025

  Exact polarizability: 229.311  -1.786 196.635   0.615  -0.274 145.030
 Approx polarizability: 270.207  -1.355 255.058   0.311  -1.832 242.348

 ******    7 imaginary frequencies (negative Signs) ******

                     1                      2                      3
                     A                      A                      A
 Frequencies --  -251.6059              -230.3911              -222.4426
 Red. masses --     1.2214                 1.2082                 1.8584
 Frc consts  --     0.0456                 0.0378                 0.0542
 IR Inten    --    91.5875               116.5291                 2.5952
 Raman Activ --     0.7289                 0.8705                 0.0869

                     4                      5                      6
                     A                      A                      A
 Frequencies --  -181.3294               -63.9278               -28.3815
 Red. masses --     1.7271                 6.7093                 6.1980
 Frc consts  --     0.0335                 0.0162                 0.0029
 IR Inten    --    12.0160                 0.4255                 0.5105
 Raman Activ --     0.2585                 0.0334                 0.0310

                     7                      8                      9
                     A                      A                      A
 Frequencies --   -14.2264                42.3275                64.9895
 Red. masses --     6.2348                 6.7308                 6.2717
 Frc consts  --     0.0007                 0.0071                 0.0156
 IR Inten    --     0.3427                 0.9771                 1.9186
 Raman Activ --     0.0510                 0.1274                 0.0352

                    10                     11                     12
                     A                      A                      A
 Frequencies --    82.9715                99.1140               133.2882
 Red. masses --     6.1507                 6.0737                 6.1143
 Frc consts  --     0.0249                 0.0352                 0.0640
 IR Inten    --     0.9543                 2.1870                 1.2623
 Raman Activ --     0.2120                 0.0330                 0.3025

                    13                     14                     15
                     A                      A                      A
 Frequencies --   144.2721               179.9692               184.8049
 Red. masses --     5.5743                 7.0229                 5.9466
 Frc consts  --     0.0684                 0.1340                 0.1197
 IR Inten    --     1.5079                 0.2355                 0.7148
 Raman Activ --     0.1018                 0.1979                 1.3056

                    16                     17                     18
                     A                      A                      A
 Frequencies --   196.6050               226.2038               264.7975
 Red. masses --     5.6943                 6.3040                 4.7964
 Frc consts  --     0.1297                 0.1900                 0.1981
 IR Inten    --     2.7515                 1.5689                14.7286
 Raman Activ --     0.3215                 1.5008                 0.3924

                    19                     20                     21
                     A                      A                      A
 Frequencies --   284.9907               288.4838               291.8202
 Red. masses --     4.5999                 4.7683                 5.2840
 Frc consts  --     0.2201                 0.2338                 0.2651
 IR Inten    --     1.1365                 0.7333                 2.6846
 Raman Activ --     0.0820                 0.2505                 0.2365

                    22                     23                     24
                     A                      A                      A
 Frequencies --   311.7089               322.2212               326.8108
 Red. masses --     4.6033                 5.5715                 6.6846
 Frc consts  --     0.2635                 0.3408                 0.4206
 IR Inten    --     6.8128                 3.4116                 2.4825
 Raman Activ --     0.6552                 1.4390                 1.3918

                    25                     26                     27
                     A                      A                      A
 Frequencies --   341.3098               362.1508               380.2044
 Red. masses --     7.1547                 4.7710                 6.2693
 Frc consts  --     0.4911                 0.3687                 0.5340
 IR Inten    --     5.6516                 6.4009                 0.2532
 Raman Activ --     5.4207                 0.9757                 1.4229

                    28                     29                     30
                     A                      A                      A
 Frequencies --   418.1197               422.0672               435.0857
 Red. masses --     6.1551                 4.5633                 4.7696
 Frc consts  --     0.6340                 0.4789                 0.5320
 IR Inten    --     5.5099                 8.9633                10.7842
 Raman Activ --     3.2146                 4.6014                 2.8610

                    31                     32                     33
                     A                      A                      A
 Frequencies --   439.6348               485.1713               493.6158
 Red. masses --     4.9264                 4.6315                 3.8887
 Frc consts  --     0.5610                 0.6423                 0.5582
 IR Inten    --     3.7130                 3.4223                 8.4286
 Raman Activ --     2.8501                 2.9464                 0.5857

                    34                     35                     36
                     A                      A                      A
 Frequencies --   513.3111               535.4704               573.5235
 Red. masses --     3.6023                 3.0219                 3.7844
 Frc consts  --     0.5592                 0.5105                 0.7334
 IR Inten    --    13.2713                 8.5724                12.9926
 Raman Activ --     3.2288                 2.5568                 1.4839

                    37                     38                     39
                     A                      A                      A
 Frequencies --   592.4779               609.4618               619.2863
 Red. masses --     2.9301                 6.1573                 4.8284
 Frc consts  --     0.6060                 1.3475                 1.0910
 IR Inten    --    33.0896                11.4896                38.2903
 Raman Activ --     0.1926                 0.6214                 0.7271

                    40                     41                     42
                     A                      A                      A
 Frequencies --   635.0653               665.9290               689.1776
 Red. masses --     3.9060                 1.4280                 2.6076
 Frc consts  --     0.9281                 0.3731                 0.7297
 IR Inten    --    16.1732                90.1690                20.0842
 Raman Activ --     0.7137                 0.9418                 1.3995

                    43                     44                     45
                     A                      A                      A
 Frequencies --   721.4403               749.8392               766.6733
 Red. masses --     1.0812                 1.0665                 1.0892
 Frc consts  --     0.3316                 0.3533                 0.3772
 IR Inten    --   100.0722                91.1793               100.9796
 Raman Activ --     1.8630                 1.7711                 1.7044

                    46                     47                     48
                     A                      A                      A
 Frequencies --   788.4715               819.9723               856.6070
 Red. masses --     1.1203                 1.1049                 1.7241
 Frc consts  --     0.4103                 0.4377                 0.7454
 IR Inten    --   142.5182               120.6731                 3.4418
 Raman Activ --     1.9927                 4.2258                 0.9014

                    49                     50                     51
                     A                      A                      A
 Frequencies --   867.6544               931.7558               955.5113
 Red. masses --     1.7117                 5.2572                 5.5414
 Frc consts  --     0.7592                 2.6891                 2.9808
 IR Inten    --     3.1249               201.9931                14.9241
 Raman Activ --     0.6435                 4.7929                 0.3919

                    52                     53                     54
                     A                      A                      A
 Frequencies --   984.3703               990.9023               999.0299
 Red. masses --     4.6379                 5.3038                 6.2220
 Frc consts  --     2.6478                 3.0683                 3.6588
 IR Inten    --   169.0071               130.6152               115.6165
 Raman Activ --     3.3516                 1.2808                 1.0120

                    55                     56                     57
                     A                      A                      A
 Frequencies --  1005.8199              1011.6852              1024.1388
 Red. masses --     6.6079                 5.9049                 6.3053
 Frc consts  --     3.9387                 3.5609                 3.8965
 IR Inten    --   191.0278                19.2753               142.6961
 Raman Activ --     1.6171                 0.9976                 3.7939

                    58                     59                     60
                     A                      A                      A
 Frequencies --  1033.6876              1049.9464              1058.9338
 Red. masses --     6.4661                 4.9792                 6.5178
 Frc consts  --     4.0707                 3.2340                 4.3061
 IR Inten    --   347.4757                25.1118               274.0514
 Raman Activ --     1.9929                13.1530                 0.6050

                    61                     62                     63
                     A                      A                      A
 Frequencies --  1060.0242              1072.8381              1077.2326
 Red. masses --     4.9758                 3.4824                 3.7381
 Frc consts  --     3.2942                 2.3616                 2.5558
 IR Inten    --    40.9199                18.1170                 8.4266
 Raman Activ --     2.9195                 5.8118                23.6421

                    64                     65                     66
                     A                      A                      A
 Frequencies --  1091.8495              1096.4519              1098.2941
 Red. masses --     2.8128                 2.0465                 2.3063
 Frc consts  --     1.9756                 1.4495                 1.6391
 IR Inten    --    28.9763                 9.7024                87.7107
 Raman Activ --     3.7046                 6.5931                 3.9447

                    67                     68                     69
                     A                      A                      A
 Frequencies --  1105.4896              1117.7822              1119.6054
 Red. masses --     2.8737                 2.7156                 2.6374
 Frc consts  --     2.0692                 1.9991                 1.9478
 IR Inten    --     2.4721                51.8612                 2.2781
 Raman Activ --     4.2860                 5.5469                 4.1185

                    70                     71                     72
                     A                      A                      A
 Frequencies --  1129.0625              1144.3764              1154.5661
 Red. masses --     1.6741                 2.3986                 1.9282
 Frc consts  --     1.2574                 1.8507                 1.5144
 IR Inten    --    14.0925                12.1589                16.0800
 Raman Activ --     3.2697                 3.8013                 4.8388

                    73                     74                     75
                     A                      A                      A
 Frequencies --  1157.6098              1164.4488              1179.4093
 Red. masses --     1.7883                 1.5751                 1.8013
 Frc consts  --     1.4119                 1.2584                 1.4762
 IR Inten    --     9.3870                 5.0737                 1.3447
 Raman Activ --     2.4601                 2.7554                 1.3691

                    76                     77                     78
                     A                      A                      A
 Frequencies --  1186.2036              1201.1085              1217.2347
 Red. masses --     1.3034                 1.4372                 1.2349
 Frc consts  --     1.0806                 1.2216                 1.0780
 IR Inten    --    16.3047                12.7612                11.1542
 Raman Activ --     1.7138                 2.4990                 0.7183

                    79                     80                     81
                     A                      A                      A
 Frequencies --  1221.8534              1235.2227              1245.1487
 Red. masses --     1.2617                 1.4033                 1.2322
 Frc consts  --     1.1098                 1.2615                 1.1255
 IR Inten    --    13.2359                 5.9130                 6.8116
 Raman Activ --     3.1176                 0.7028                 0.9892

                    82                     83                     84
                     A                      A                      A
 Frequencies --  1256.8413              1270.1269              1271.2665
 Red. masses --     1.2381                 1.3321                 1.3041
 Frc consts  --     1.1523                 1.2661                 1.2418
 IR Inten    --     4.0706                 8.7299                 1.9823
 Raman Activ --     1.7536                 3.4659                 2.7262

                    85                     86                     87
                     A                      A                      A
 Frequencies --  1285.2636              1292.8379              1299.6273
 Red. masses --     1.3097                 1.3539                 1.2166
 Frc consts  --     1.2747                 1.3333                 1.2107
 IR Inten    --    22.5529                19.6754                19.2703
 Raman Activ --     1.2631                 1.5705                 7.0595

                    88                     89                     90
                     A                      A                      A
 Frequencies --  1303.3116              1311.1129              1319.2837
 Red. masses --     1.3451                 1.2976                 1.3335
 Frc consts  --     1.3462                 1.3142                 1.3675
 IR Inten    --    31.1216                12.2325                16.9101
 Raman Activ --     3.3135                 5.9361                 8.1198

                    91                     92                     93
                     A                      A                      A
 Frequencies --  1328.3050              1331.9666              1335.2834
 Red. masses --     1.3310                 1.2369                 1.2439
 Frc consts  --     1.3836                 1.2929                 1.3067
 IR Inten    --    34.3062                72.9011                15.0142
 Raman Activ --     1.2837                 6.1521                 0.8541

                    94                     95                     96
                     A                      A                      A
 Frequencies --  1342.7870              1361.0849              1364.9995
 Red. masses --     1.2691                 1.3953                 1.6787
 Frc consts  --     1.3482                 1.5229                 1.8428
 IR Inten    --    31.8612                 9.3874                 6.3500
 Raman Activ --     4.4150                 3.9139                 6.6676

                    97                     98                     99
                     A                      A                      A
 Frequencies --  1369.6292              1384.7158              1404.8930
 Red. masses --     1.6371                 1.4590                 1.3779
 Frc consts  --     1.8094                 1.6483                 1.6023
 IR Inten    --     7.0070                 1.2141                 4.1215
 Raman Activ --     7.0433                 5.1711                 9.2950

                   100                    101                    102
                     A                      A                      A
 Frequencies --  1431.4410              1436.5293              1456.5121
 Red. masses --     1.4876                 1.4020                 1.3577
 Frc consts  --     1.7959                 1.7046                 1.6971
 IR Inten    --    43.3858                18.2346                47.2097
 Raman Activ --     1.0672                 1.3990                 1.9936

                   103                    104                    105
                     A                      A                      A
 Frequencies --  1468.1345              1471.2812              1477.5482
 Red. masses --     1.0813                 1.1365                 1.2889
 Frc consts  --     1.3732                 1.4494                 1.6579
 IR Inten    --     4.9803                14.5642                11.2175
 Raman Activ --     3.7401                 5.2957                 0.6242

                   106                    107                    108
                     A                      A                      A
 Frequencies --  1521.7706              1531.2986              3259.9070
 Red. masses --     1.2571                 1.2486                 1.0563
 Frc consts  --     1.7152                 1.7251                 6.6137
 IR Inten    --    38.1880                47.5670                25.4330
 Raman Activ --     0.9931                 1.0938                85.7665

                   109                    110                    111
                     A                      A                      A
 Frequencies --  3262.3975              3273.0722              3277.0213
 Red. masses --     1.0570                 1.0831                 1.0836
 Frc consts  --     6.6280                 6.8367                 6.8564
 IR Inten    --    32.3408                11.0731                27.2770
 Raman Activ --    98.6819                11.0074                22.4561

                   112                    113                    114
                     A                      A                      A
 Frequencies --  3280.9330              3282.4495              3284.9448
 Red. masses --     1.0832                 1.0836                 1.0840
 Frc consts  --     6.8700                 6.8789                 6.8920
 IR Inten    --    16.6398                 6.2456                 3.3609
 Raman Activ --    18.7962               138.8158               183.7580

                   115                    116                    117
                     A                      A                      A
 Frequencies --  3286.7514              3293.0922              3294.7076
 Red. masses --     1.0845                 1.0860                 1.0862
 Frc consts  --     6.9028                 6.9391                 6.9470
 IR Inten    --     7.3125                 0.2662                11.7151
 Raman Activ --    64.5333                38.6549                17.7623

                   118                    119                    120
                     A                      A                      A
 Frequencies --  3303.1762              3305.5576              3309.6955
 Red. masses --     1.0832                 1.0841                 1.0741
 Frc consts  --     6.9636                 6.9792                 6.9319
 IR Inten    --   150.7309                56.3935               284.7757
 Raman Activ --    32.0605                36.8678               131.4982

                   121                    122                    123
                     A                      A                      A
 Frequencies --  3321.3122              3323.6006              3341.9727
 Red. masses --     1.1069                 1.1070                 1.0663
 Frc consts  --     7.1944                 7.2049                 7.0169
 IR Inten    --    32.5979                51.5185               296.8778
 Raman Activ --    48.8136                35.0531               124.5614

                   124                    125                    126
                     A                      A                      A
 Frequencies --  3362.7939              3366.9158              3371.9535
 Red. masses --     1.0658                 1.0675                 1.0702
 Frc consts  --     7.1011                 7.1301                 7.1696
 IR Inten    --    23.4188                41.7004                37.6261
 Raman Activ --   144.0324               147.2084               144.9366

                   127                    128                    129
                     A                      A                      A
 Frequencies --  3376.7251              3890.0385              3893.5454
 Red. masses --     1.0649                 1.0676                 1.0674
 Frc consts  --     7.1540                 9.5181                 9.5334
 IR Inten    --    33.4075                76.4249                76.3196
 Raman Activ --   117.8971                87.4907               117.4223

 - Thermochemistry -
 -------------------
 Temperature   298.150 Kelvin.  Pressure   1.00000 Atm.
 Atom     1 has atomic number  8 and mass  15.99491

 Molecular mass:   342.11621 amu.
 Principal axes and moments of inertia in atomic units:
                           1         2         3
     Eigenvalues --  4476.48530********************
           X            0.99997   0.00741  -0.00030
           Y           -0.00741   0.99997   0.00063
           Z            0.00030  -0.00063   1.00000
 This molecule is an asymmetric top.
 Rotational symmetry number  1.
 Warning -- assumption of classical behavior for rotation
           may cause significant error
 Rotational temperatures (Kelvin)      0.01935     0.00714     0.00540
 Rotational constants (GHZ):           0.40316     0.14871     0.11250
    7 imaginary frequencies ignored.
 Zero-point vibrational energy     974592.3 (Joules/Mol)
                                  232.93315 (Kcal/Mol)
 Warning -- explicit consideration of  32 degrees of freedom as
           vibrations may cause significant error
 Vibrational temperatures:     60.90    93.51   119.38   142.60   191.77
          (Kelvin)            207.58   258.94   265.89   282.87   325.46
                              380.98   410.04   415.06   419.86   448.48
                              463.60   470.21   491.07   521.05   547.03
                              601.58   607.26   625.99   632.54   698.05
                              710.20   738.54   770.42   825.17   852.44
                              876.88   891.01   913.72   958.12   991.57
                             1037.99  1078.85  1103.07  1134.43  1179.76
                             1232.46  1248.36  1340.59  1374.77  1416.29
                             1425.69  1437.38  1447.15  1455.59  1473.51
                             1487.24  1510.64  1523.57  1525.14  1543.57
                             1549.90  1570.93  1577.55  1580.20  1590.55
                             1608.24  1610.86  1624.47  1646.50  1661.16
                             1665.54  1675.38  1696.90  1706.68  1728.13
                             1751.33  1757.97  1777.21  1791.49  1808.31
                             1827.43  1829.07  1849.21  1860.10  1869.87
                             1875.17  1886.40  1898.15  1911.13  1916.40
                             1921.17  1931.97  1958.30  1963.93  1970.59
                             1992.29  2021.33  2059.52  2066.84  2095.59
                             2112.32  2116.84  2125.86  2189.49  2203.19
                             4690.27  4693.86  4709.21  4714.90  4720.52
                             4722.71  4726.30  4728.90  4738.02  4740.34
                             4752.53  4755.95  4761.91  4778.62  4781.91
                             4808.35  4838.30  4844.23  4851.48  4858.35
                             5596.89  5601.94

 Zero-point correction=                           0.371203 (Hartree/Particle)
 Thermal correction to Energy=                    0.389471
 Thermal correction to Enthalpy=                  0.390416
 Thermal correction to Gibbs Free Energy=         0.325787
 Sum of electronic and zero-point Energies=          -1297.643938
 Sum of electronic and thermal Energies=             -1297.625669
 Sum of electronic and thermal Enthalpies=           -1297.624725
 Sum of electronic and thermal Free Energies=        -1297.689354

                     E (Thermal)             CV                S
                      KCal/Mol        Cal/Mol-Kelvin    Cal/Mol-Kelvin
 Total                  244.397             75.868            136.023
 Electronic               0.000              0.000              0.000
 Translational            0.889              2.981             43.384
 Rotational               0.889              2.981             35.121
 Vibrational            242.620             69.906             57.518
 Vibration     1          0.595              1.980              5.147
 Vibration     2          0.597              1.971              4.300
 Vibration     3          0.600              1.961              3.819
 Vibration     4          0.604              1.950              3.472
 Vibration     5          0.613              1.920              2.898
 Vibration     6          0.616              1.909              2.746
 Vibration     7          0.629              1.867              2.329
 Vibration     8          0.631              1.861              2.279
 Vibration     9          0.636              1.845              2.165
 Vibration    10          0.650              1.801              1.909
 Vibration    11          0.671              1.738              1.630
 Vibration    12          0.683              1.702              1.504
 Vibration    13          0.685              1.695              1.483
 Vibration    14          0.687              1.689              1.463
 Vibration    15          0.700              1.651              1.353
 Vibration    16          0.707              1.631              1.299
 Vibration    17          0.710              1.622              1.276
 Vibration    18          0.721              1.593              1.206
 Vibration    19          0.736              1.550              1.113
 Vibration    20          0.750              1.512              1.038
 Vibration    21          0.781              1.431              0.898
 Vibration    22          0.784              1.422              0.885
 Vibration    23          0.796              1.394              0.842
 Vibration    24          0.800              1.384              0.828
 Vibration    25          0.841              1.283              0.696
 Vibration    26          0.849              1.264              0.674
 Vibration    27          0.868              1.221              0.626
 Vibration    28          0.890              1.172              0.575
 Vibration    29          0.930              1.089              0.498
 Vibration    30          0.950              1.048              0.463
 Vibration    31          0.968              1.012              0.434
 Vibration    32          0.979              0.991              0.418

 Normal termination of Gaussian 09 at Sun Mar 27 05:03:58 2016.
