 Gaussian 09, Revision B.01,
 Gaussian 09:  EM64L-G09RevB.01 12-Aug-2010

 -------------------------------------------------
 # freq=raman b3lyp/6-31+g(2d,p) geom=connectivity
 -------------------------------------------------

 -----------------
 500 7899/7899.com
 -----------------
 Symbolic Z-matrix:
 Charge =  0 Multiplicity = 1

                         Standard orientation:
 ---------------------------------------------------------------------
 Center     Atomic      Atomic             Coordinates (Angstroms)
 Number     Number       Type             X           Y           Z
 ---------------------------------------------------------------------
      1          8           0        5.222048   -0.416280   -0.488747
      2          6           0        3.951459   -0.153787    0.123899
      3          6           0        3.345610    1.189705   -0.246997
      4          8           0        4.330666    2.229815   -0.149164
      5          1           0        5.254527    1.924937   -0.381051
      6          6           0        1.998846    1.639766    0.295324
      7          8           0        1.558386    2.804611   -0.416331
      8          1           0        2.120850    3.630229   -0.367892
      9          6           0        3.217917   -2.594739    0.291591
     10          8           0        2.335191   -3.578475   -0.266021
     11          1           0        2.703934   -4.482176   -0.049956
     12          6           0        2.841445   -1.169964   -0.083357
     13          8           0        1.592726   -0.752730    0.487576
     14          6           0        1.059491    0.483679   -0.008920
     15          8           0       -0.207209    0.734362    0.617046
     16          6           0       -1.385699    0.289400   -0.069345
     17          6           0       -1.894552   -1.027033    0.493732
     18          8           0       -0.950630   -2.096615    0.334306
     19          1           0       -0.037907   -1.882004    0.683230
     20          6           0       -3.130439   -1.525874   -0.237789
     21          8           0       -3.594339   -2.883749   -0.228942
     22          1           0       -2.895485   -3.445343   -0.671105
     23          6           0       -2.179041    2.586567   -0.191925
     24          8           0       -2.839851    3.761067    0.302058
     25          1           0       -2.874280    4.584584   -0.262874
     26          6           0       -2.516554    1.210896    0.357954
     27          8           0       -3.811416    0.791719   -0.099229
     28          6           0       -4.241197   -0.557810    0.133639
     29          8           0       -5.379217   -0.826698   -0.698700
     30          1           0       -6.180737   -0.767988   -0.173610
     31          1           0       -4.504998   -0.683634    1.162948
     32          1           0       -2.923066   -1.330164   -1.269095
     33          1           0       -2.121360   -0.905133    1.532288
     34          1           0       -1.262278    0.261860   -1.131846
     35          1           0       -2.531323    1.262495    1.426607
     36          1           0       -2.351395    2.551887   -1.247383
     37          1           0       -1.129522    2.733168   -0.043880
     38          1           0        5.914511   -0.359806    0.173753
     39          1           0        3.201925   -2.684494    1.357700
     40          1           0        4.211333   -2.789530   -0.054937
     41          1           0        2.674954   -1.192442   -1.140086
     42          1           0        4.134558   -0.121677    1.177628
     43          1           0        3.168501    1.098344   -1.298275
     44          1           0        2.050717    1.826479    1.347630
     45          1           0        0.921996    0.409369   -1.067444
 ---------------------------------------------------------------------

 SCF Done:  E(RB3LYP) =  -1297.97333731     A.U. after   14 cycles

 The electronic state is 1-A.
 Alpha  occ. eigenvalues --  -19.19965 -19.19331 -19.18409 -19.17103 -19.17050
 Alpha  occ. eigenvalues --  -19.16839 -19.15373 -19.15104 -19.14773 -19.13644
 Alpha  occ. eigenvalues --  -19.13586 -10.31659 -10.28471 -10.27323 -10.26858
 Alpha  occ. eigenvalues --  -10.26818 -10.25770 -10.25233 -10.25176 -10.24286
 Alpha  occ. eigenvalues --  -10.23503 -10.23072 -10.21903  -1.10175  -1.07636
 Alpha  occ. eigenvalues --   -1.06316  -1.04880  -1.04404  -1.03222  -1.02422
 Alpha  occ. eigenvalues --   -1.01726  -1.00729  -0.99729  -0.99388  -0.82845
 Alpha  occ. eigenvalues --   -0.82226  -0.79179  -0.77828  -0.72443  -0.69450
 Alpha  occ. eigenvalues --   -0.67560  -0.64294  -0.63798  -0.62334  -0.61051
 Alpha  occ. eigenvalues --   -0.60023  -0.57578  -0.56095  -0.55239  -0.54294
 Alpha  occ. eigenvalues --   -0.53551  -0.53369  -0.52697  -0.52174  -0.51466
 Alpha  occ. eigenvalues --   -0.51040  -0.49326  -0.48633  -0.47303  -0.46500
 Alpha  occ. eigenvalues --   -0.46143  -0.45209  -0.44384  -0.43546  -0.43011
 Alpha  occ. eigenvalues --   -0.42358  -0.41870  -0.41195  -0.40305  -0.39124
 Alpha  occ. eigenvalues --   -0.37610  -0.37298  -0.36799  -0.36435  -0.36095
 Alpha  occ. eigenvalues --   -0.35010  -0.34645  -0.33843  -0.33365  -0.32920
 Alpha  occ. eigenvalues --   -0.31819  -0.30666  -0.30264  -0.29984  -0.29683
 Alpha  occ. eigenvalues --   -0.29557  -0.28977  -0.27716  -0.27269  -0.26048
 Alpha  occ. eigenvalues --   -0.25832
 Alpha virt. eigenvalues --   -0.03631  -0.01644  -0.00669   0.00169   0.00697
 Alpha virt. eigenvalues --    0.00945   0.01207   0.02328   0.02446   0.03205
 Alpha virt. eigenvalues --    0.03742   0.04286   0.04719   0.05101   0.05782

 Mulliken atomic charges:
              1
     1  O   -0.547085
     2  C   -0.371029
     3  C    0.433236
     4  O   -0.618014
     5  H    0.346883
     6  C    0.067435
     7  O   -0.555654
     8  H    0.365342
     9  C   -0.380740
    10  O   -0.493362
    11  H    0.334494
    12  C    0.417462
    13  O   -0.297588
    14  C   -0.016809
    15  O   -0.233931
    16  C    0.236136
    17  C    0.358617
    18  O   -0.592418
    19  H    0.371098
    20  C   -0.131956
    21  O   -0.516467
    22  H    0.343281
    23  C   -0.433959
    24  O   -0.550548
    25  H    0.331381
    26  C    0.147300
    27  O   -0.280539
    28  C    0.281335
    29  O   -0.494932
    30  H    0.323752
    31  H    0.115731
    32  H    0.111280
    33  H    0.111102
    34  H    0.121077
    35  H    0.124729
    36  H    0.133928
    37  H    0.181874
    38  H    0.344683
    39  H    0.144262
    40  H    0.159039
    41  H    0.118057
    42  H    0.115065
    43  H    0.113924
    44  H    0.136618
    45  H    0.125909
 Sum of Mulliken atomic charges =   0.00000

 Dipole moment (field-independent basis, Debye):
    X=              7.9978    Y=             -0.1511    Z=              1.1764  Tot=              8.0853
 Quadrupole moment (field-independent basis, Debye-Ang):
   XX=           -119.9091   YY=           -133.4319   ZZ=           -138.4912
   XY=             -9.6999   XZ=              3.1181   YZ=             -7.5998

  Exact polarizability: 228.298   1.646 206.925   1.478  -0.635 144.760
 Approx polarizability: 271.398   0.766 265.994   1.506   1.317 239.553

 ******    6 imaginary frequencies (negative Signs) ******

                     1                      2                      3
                     A                      A                      A
 Frequencies --  -270.0947              -238.5706              -233.5189
 Red. masses --     1.8163                 1.1205                 1.8435
 Frc consts  --     0.0781                 0.0376                 0.0592
 IR Inten    --     9.3570                91.1249                 4.0360
 Raman Activ --     0.0755                 1.0013                 0.1014

                     4                      5                      6
                     A                      A                      A
 Frequencies --   -82.5745               -59.8606               -52.1610
 Red. masses --     4.1216                 4.1578                 3.0407
 Frc consts  --     0.0166                 0.0088                 0.0049
 IR Inten    --    17.1807                16.9507                38.4981
 Raman Activ --     0.0415                 0.1045                 0.2542

                     7                      8                      9
                     A                      A                      A
 Frequencies --    47.0244                56.0105                63.0420
 Red. masses --     5.4190                 6.9106                 3.7976
 Frc consts  --     0.0071                 0.0128                 0.0089
 IR Inten    --     8.6399                 3.4513                19.8691
 Raman Activ --     0.0934                 0.0890                 0.2592

                    10                     11                     12
                     A                      A                      A
 Frequencies --    79.6699                90.7674               114.0414
 Red. masses --     5.7246                 6.3150                 6.1400
 Frc consts  --     0.0214                 0.0307                 0.0470
 IR Inten    --     8.6219                 2.8608                 0.2817
 Raman Activ --     0.0332                 0.0569                 0.3150

                    13                     14                     15
                     A                      A                      A
 Frequencies --   124.3512               153.9946               192.8641
 Red. masses --     5.6333                 6.4916                 5.9881
 Frc consts  --     0.0513                 0.0907                 0.1312
 IR Inten    --     0.8559                 0.1301                 3.3328
 Raman Activ --     0.3773                 0.7315                 0.7813

                    16                     17                     18
                     A                      A                      A
 Frequencies --   197.7586               211.1895               243.2829
 Red. masses --     5.4869                 5.8402                 4.7653
 Frc consts  --     0.1264                 0.1535                 0.1662
 IR Inten    --     6.9810                 0.1452                12.0347
 Raman Activ --     0.6971                 2.1484                 0.4945

                    19                     20                     21
                     A                      A                      A
 Frequencies --   278.9553               288.3918               294.1480
 Red. masses --     4.0207                 5.3421                 4.8511
 Frc consts  --     0.1843                 0.2618                 0.2473
 IR Inten    --     5.2442                 1.9262                 2.3393
 Raman Activ --     0.9674                 0.3162                 0.5879

                    22                     23                     24
                     A                      A                      A
 Frequencies --   310.1312               326.4687               328.6914
 Red. masses --     5.2644                 5.6678                 5.0944
 Frc consts  --     0.2983                 0.3559                 0.3243
 IR Inten    --     2.0968                 1.6871                 3.1433
 Raman Activ --     0.4793                 2.3215                 1.3011

                    25                     26                     27
                     A                      A                      A
 Frequencies --   346.2064               363.8955               369.7152
 Red. masses --     5.0878                 4.3324                 5.2719
 Frc consts  --     0.3593                 0.3380                 0.4246
 IR Inten    --     3.3323                 9.3436                 0.4545
 Raman Activ --     5.1151                 0.1343                 1.9803

                    28                     29                     30
                     A                      A                      A
 Frequencies --   395.1599               414.6687               430.5114
 Red. masses --     5.2781                 5.2209                 6.2783
 Frc consts  --     0.4856                 0.5289                 0.6856
 IR Inten    --    11.4495                 3.1804                 2.3292
 Raman Activ --     4.9832                 6.4718                 0.8382

                    31                     32                     33
                     A                      A                      A
 Frequencies --   435.9469               465.6603               480.2042
 Red. masses --     4.2176                 4.6467                 3.7028
 Frc consts  --     0.4723                 0.5937                 0.5031
 IR Inten    --     2.6533                17.6931                13.3638
 Raman Activ --     1.0386                 0.5093                 1.2315

                    34                     35                     36
                     A                      A                      A
 Frequencies --   518.3947               526.4581               542.9047
 Red. masses --     3.0917                 4.3751                 4.2550
 Frc consts  --     0.4895                 0.7144                 0.7389
 IR Inten    --    29.2500                 4.4143                 6.5258
 Raman Activ --     4.3156                 0.7802                 5.6212

                    37                     38                     39
                     A                      A                      A
 Frequencies --   560.3937               582.8100               586.6823
 Red. masses --     1.3747                 3.0072                 3.3705
 Frc consts  --     0.2544                 0.6018                 0.6835
 IR Inten    --    88.9876                37.4407                18.2815
 Raman Activ --     2.1517                 0.3578                 0.1794

                    40                     41                     42
                     A                      A                      A
 Frequencies --   605.2346               634.5669               650.1812
 Red. masses --     3.3417                 3.5179                 1.7702
 Frc consts  --     0.7212                 0.8346                 0.4409
 IR Inten    --    22.2856                46.5513                38.4495
 Raman Activ --     0.6764                 0.3448                 1.2794

                    43                     44                     45
                     A                      A                      A
 Frequencies --   657.4633               701.5278               704.4238
 Red. masses --     1.5567                 1.0777                 1.0847
 Frc consts  --     0.3965                 0.3125                 0.3171
 IR Inten    --    71.5655                60.7065                99.6108
 Raman Activ --     1.0209                 0.5680                 2.9930

                    46                     47                     48
                     A                      A                      A
 Frequencies --   707.5395               783.9425               824.4538
 Red. masses --     1.0501                 1.1139                 2.7480
 Frc consts  --     0.3097                 0.4033                 1.1005
 IR Inten    --   101.6525               163.7934                12.9264
 Raman Activ --     1.5384                 3.7483                 2.7178

                    49                     50                     51
                     A                      A                      A
 Frequencies --   834.3588               923.9933               948.2989
 Red. masses --     2.3936                 5.9608                 6.1951
 Frc consts  --     0.9818                 2.9984                 3.2824
 IR Inten    --     1.3261               122.0868               233.0172
 Raman Activ --     3.2176                 2.0827                 0.9198

                    52                     53                     54
                     A                      A                      A
 Frequencies --   969.9161               972.6567               979.7520
 Red. masses --     4.9972                 4.7380                 6.2745
 Frc consts  --     2.7698                 2.6409                 3.5486
 IR Inten    --   126.3134               128.6349                32.2845
 Raman Activ --     2.8933                 6.9597                 3.1040

                    55                     56                     57
                     A                      A                      A
 Frequencies --   984.0764               999.1719              1007.6918
 Red. masses --     5.2490                 4.6751                 6.0430
 Frc consts  --     2.9949                 2.7499                 3.6154
 IR Inten    --   195.8064               133.9223               235.0746
 Raman Activ --     0.9159                 2.3566                 0.6774

                    58                     59                     60
                     A                      A                      A
 Frequencies --  1034.3142              1041.1788              1054.9953
 Red. masses --     4.5241                 4.2774                 3.1441
 Frc consts  --     2.8516                 2.7320                 2.0618
 IR Inten    --    98.5141               243.0553                40.0477
 Raman Activ --     2.2878                 8.6173                11.2727

                    61                     62                     63
                     A                      A                      A
 Frequencies --  1056.4234              1063.9755              1068.3093
 Red. masses --     3.9674                 4.6340                 3.4436
 Frc consts  --     2.6088                 3.0908                 2.3155
 IR Inten    --     8.6395                23.8964               104.2022
 Raman Activ --     3.0367                 3.0945                 4.4250

                    64                     65                     66
                     A                      A                      A
 Frequencies --  1077.9908              1098.6695              1106.8368
 Red. masses --     2.7130                 3.1531                 2.3043
 Frc consts  --     1.8575                 2.2425                 1.6633
 IR Inten    --   109.8750                24.9537                17.1936
 Raman Activ --     9.7472                 3.3132                 6.5194

                    67                     68                     69
                     A                      A                      A
 Frequencies --  1120.1541              1121.8866              1132.9651
 Red. masses --     2.4616                 1.6454                 2.1364
 Frc consts  --     1.8198                 1.2202                 1.6158
 IR Inten    --    49.8639                27.6744                22.6939
 Raman Activ --     4.4403                 4.3240                 1.2927

                    70                     71                     72
                     A                      A                      A
 Frequencies --  1134.4081              1149.6176              1151.2578
 Red. masses --     2.4984                 2.4325                 3.0065
 Frc consts  --     1.8943                 1.8941                 2.3478
 IR Inten    --    25.7662                11.2960                 8.7837
 Raman Activ --     5.7451                 4.2115                 2.3471

                    73                     74                     75
                     A                      A                      A
 Frequencies --  1161.3280              1164.2622              1172.6713
 Red. masses --     2.0750                 3.7305                 1.5935
 Frc consts  --     1.6488                 2.9793                 1.2911
 IR Inten    --    10.9600                81.3544                 2.3392
 Raman Activ --     3.6861                 0.1205                 1.0533

                    76                     77                     78
                     A                      A                      A
 Frequencies --  1191.5083              1211.4337              1236.1516
 Red. masses --     1.6406                 1.4060                 1.2602
 Frc consts  --     1.3723                 1.2157                 1.1346
 IR Inten    --     1.4431                 8.7928                19.4558
 Raman Activ --     4.6330                 2.7573                 2.7016

                    79                     80                     81
                     A                      A                      A
 Frequencies --  1245.8304              1249.9730              1253.8902
 Red. masses --     1.2544                 1.1730                 1.1851
 Frc consts  --     1.1471                 1.0798                 1.0978
 IR Inten    --    16.5569                 4.0928                 9.3130
 Raman Activ --     2.2378                 0.4797                 4.1465

                    82                     83                     84
                     A                      A                      A
 Frequencies --  1269.4861              1272.7196              1278.9379
 Red. masses --     1.1706                 1.2723                 1.2271
 Frc consts  --     1.1115                 1.2142                 1.1826
 IR Inten    --     3.7439                26.1745                16.8171
 Raman Activ --     4.0390                 3.0720                 1.1426

                    85                     86                     87
                     A                      A                      A
 Frequencies --  1285.9565              1290.7970              1302.0714
 Red. masses --     1.2986                 1.2848                 1.2088
 Frc consts  --     1.2652                 1.2613                 1.2074
 IR Inten    --    15.3221                52.3810                 0.3365
 Raman Activ --     2.8204                 1.8179                 3.4251

                    88                     89                     90
                     A                      A                      A
 Frequencies --  1306.1982              1317.7588              1322.8051
 Red. masses --     1.2067                 1.3296                 1.4823
 Frc consts  --     1.2131                 1.3603                 1.5282
 IR Inten    --    18.3164                27.3177                41.4074
 Raman Activ --    11.5243                10.1247                 4.1142

                    91                     92                     93
                     A                      A                      A
 Frequencies --  1334.9656              1350.0757              1355.1231
 Red. masses --     1.2714                 1.3468                 1.2761
 Frc consts  --     1.3350                 1.4463                 1.3807
 IR Inten    --    60.8192                12.5350                 4.1549
 Raman Activ --     1.8669                 1.5645                 2.0051

                    94                     95                     96
                     A                      A                      A
 Frequencies --  1359.2913              1368.1975              1372.5693
 Red. masses --     1.3028                 1.3136                 1.2823
 Frc consts  --     1.4182                 1.4488                 1.4233
 IR Inten    --    16.0135                21.3882                 8.1926
 Raman Activ --     5.8894                 1.5774                 2.7711

                    97                     98                     99
                     A                      A                      A
 Frequencies --  1374.9997              1393.7841              1402.8716
 Red. masses --     1.2657                 1.5524                 1.2528
 Frc consts  --     1.4099                 1.7769                 1.4527
 IR Inten    --    37.9433                 4.6780                11.9384
 Raman Activ --     2.3052                 2.5820                 3.5134

                   100                    101                    102
                     A                      A                      A
 Frequencies --  1407.9563              1419.1879              1429.7875
 Red. masses --     1.3637                 1.5063                 1.3973
 Frc consts  --     1.5927                 1.7875                 1.6830
 IR Inten    --    17.2781                30.8219                18.5479
 Raman Activ --     6.5453                 3.6633                 2.5730

                   103                    104                    105
                     A                      A                      A
 Frequencies --  1432.9900              1454.7238              1462.5857
 Red. masses --     1.3100                 1.2725                 1.1607
 Frc consts  --     1.5849                 1.5866                 1.4629
 IR Inten    --     1.5625                13.6789                10.9910
 Raman Activ --     0.0888                 1.0176                 5.9581

                   106                    107                    108
                     A                      A                      A
 Frequencies --  1464.9867              1469.6214              3251.1516
 Red. masses --     1.0775                 1.3985                 1.0791
 Frc consts  --     1.3624                 1.7796                 6.7203
 IR Inten    --    12.2368                40.1121                11.5918
 Raman Activ --     4.3114                 2.6659                61.0814

                   109                    110                    111
                     A                      A                      A
 Frequencies --  3258.1811              3259.9481              3262.4708
 Red. masses --     1.0699                 1.0802                 1.0686
 Frc consts  --     6.6920                 6.7636                 6.7013
 IR Inten    --    19.4729                 7.1727                 4.8907
 Raman Activ --   166.9480                72.0802                16.6321

                   112                    113                    114
                     A                      A                      A
 Frequencies --  3263.6606              3270.7679              3280.1820
 Red. masses --     1.0618                 1.0833                 1.0843
 Frc consts  --     6.6636                 6.8283                 6.8738
 IR Inten    --    19.2343                 7.3520                49.5406
 Raman Activ --   121.3129                 5.0217                 6.2938

                   115                    116                    117
                     A                      A                      A
 Frequencies --  3282.6678              3285.8668              3288.4195
 Red. masses --     1.0843                 1.0843                 1.0842
 Frc consts  --     6.8842                 6.8975                 6.9076
 IR Inten    --    18.2007                35.3167                31.8990
 Raman Activ --     9.9120                11.6181               222.7724

                   118                    119                    120
                     A                      A                      A
 Frequencies --  3303.9132              3305.2951              3318.2736
 Red. masses --     1.0868                 1.0861                 1.1065
 Frc consts  --     6.9898                 6.9910                 7.1785
 IR Inten    --     2.3868                83.4373                31.7202
 Raman Activ --    22.4466                 5.1031                45.9320

                   121                    122                    123
                     A                      A                      A
 Frequencies --  3320.8936              3338.4925              3365.5032
 Red. masses --     1.1032                 1.0674                 1.0662
 Frc consts  --     7.1681                 7.0092                 7.1151
 IR Inten    --    21.1264               288.5919                50.8792
 Raman Activ --    54.5332               190.1154               108.9531

                   124                    125                    126
                     A                      A                      A
 Frequencies --  3374.7438              3376.4572              3378.1383
 Red. masses --     1.0668                 1.0690                 1.0677
 Frc consts  --     7.1585                 7.1802                 7.1791
 IR Inten    --    49.0040                44.8833                98.9804
 Raman Activ --   154.5869               165.3485               175.1090

                   127                    128                    129
                     A                      A                      A
 Frequencies --  3383.2425              3886.0507              3888.7962
 Red. masses --     1.0662                 1.0678                 1.0674
 Frc consts  --     7.1904                 9.5009                 9.5106
 IR Inten    --    46.0550                93.1268                64.6480
 Raman Activ --    83.3273                85.8576               142.1403

 - Thermochemistry -
 -------------------
 Temperature   298.150 Kelvin.  Pressure   1.00000 Atm.
 Atom     1 has atomic number  8 and mass  15.99491

 Molecular mass:   342.11621 amu.
 Principal axes and moments of inertia in atomic units:
                           1         2         3
     Eigenvalues --  4815.50678********************
           X            0.99997  -0.00726   0.00047
           Y            0.00726   0.99996  -0.00478
           Z           -0.00043   0.00478   0.99999
 This molecule is an asymmetric top.
 Rotational symmetry number  1.
 Warning -- assumption of classical behavior for rotation
           may cause significant error
 Rotational temperatures (Kelvin)      0.01799     0.00715     0.00525
 Rotational constants (GHZ):           0.37478     0.14900     0.10937
    6 imaginary frequencies ignored.
 Zero-point vibrational energy     969293.6 (Joules/Mol)
                                  231.66673 (Kcal/Mol)
 Warning -- explicit consideration of  34 degrees of freedom as
           vibrations may cause significant error
 Vibrational temperatures:     67.66    80.59    90.70   114.63   130.59
          (Kelvin)            164.08   178.91   221.56   277.49   284.53
                              303.85   350.03   401.35   414.93   423.21
                              446.21   469.72   472.91   498.11   523.56
                              531.94   568.55   596.61   619.41   627.23
                              669.98   690.91   745.85   757.45   781.12
                              806.28   838.53   844.10   870.80   913.00
                              935.46   945.94  1009.34  1013.51  1017.99
                             1127.92  1186.20  1200.45  1329.42  1364.39
                             1395.49  1399.43  1409.64  1415.86  1437.58
                             1449.84  1488.15  1498.02  1517.90  1519.96
                             1530.82  1537.06  1550.99  1580.74  1592.49
                             1611.65  1614.14  1630.08  1632.16  1654.04
                             1656.40  1670.89  1675.11  1687.21  1714.31
                             1742.98  1778.54  1792.47  1798.43  1804.07
                             1826.51  1831.16  1840.10  1850.20  1857.17
                             1873.39  1879.33  1895.96  1903.22  1920.72
                             1942.46  1949.72  1955.71  1968.53  1974.82
                             1978.32  2005.34  2018.42  2025.73  2041.89
                             2057.14  2061.75  2093.02  2104.33  2107.79
                             2114.45  4677.68  4687.79  4690.33  4693.96
                             4695.67  4705.90  4719.44  4723.02  4727.62
                             4731.30  4753.59  4755.58  4774.25  4778.02
                             4803.34  4842.20  4855.50  4857.96  4860.38
                             4867.73  5591.15  5595.10

 Zero-point correction=                           0.369184 (Hartree/Particle)
 Thermal correction to Energy=                    0.388766
 Thermal correction to Enthalpy=                  0.389710
 Thermal correction to Gibbs Free Energy=         0.321822
 Sum of electronic and zero-point Energies=          -1297.604153
 Sum of electronic and thermal Energies=             -1297.584571
 Sum of electronic and thermal Enthalpies=           -1297.583627
 Sum of electronic and thermal Free Energies=        -1297.651515

                     E (Thermal)             CV                S
                      KCal/Mol        Cal/Mol-Kelvin    Cal/Mol-Kelvin
 Total                  243.954             79.340            142.882
 Electronic               0.000              0.000              0.000
 Translational            0.889              2.981             43.384
 Rotational               0.889              2.981             35.219
 Vibrational            242.177             73.378             64.279
 Vibration     1          0.595              1.979              4.939
 Vibration     2          0.596              1.975              4.593
 Vibration     3          0.597              1.972              4.360
 Vibration     4          0.600              1.963              3.899
 Vibration     5          0.602              1.956              3.643
 Vibration     6          0.607              1.938              3.199
 Vibration     7          0.610              1.929              3.032
 Vibration     8          0.620              1.898              2.622
 Vibration     9          0.635              1.850              2.200
 Vibration    10          0.637              1.843              2.154
 Vibration    11          0.643              1.824              2.033
 Vibration    12          0.659              1.774              1.779
 Vibration    13          0.679              1.712              1.540
 Vibration    14          0.685              1.695              1.483
 Vibration    15          0.689              1.685              1.450
 Vibration    16          0.699              1.654              1.362
 Vibration    17          0.710              1.623              1.278
 Vibration    18          0.712              1.618              1.267
 Vibration    19          0.724              1.583              1.183
 Vibration    20          0.737              1.547              1.105
 Vibration    21          0.742              1.534              1.081
 Vibration    22          0.762              1.481              0.981
 Vibration    23          0.778              1.438              0.910
 Vibration    24          0.792              1.404              0.857
 Vibration    25          0.796              1.392              0.839
 Vibration    26          0.823              1.326              0.750
 Vibration    27          0.837              1.294              0.710
 Vibration    28          0.873              1.209              0.614
 Vibration    29          0.881              1.191              0.595
 Vibration    30          0.898              1.155              0.559
 Vibration    31          0.916              1.117              0.523
 Vibration    32          0.940              1.069              0.480
 Vibration    33          0.944              1.060              0.473
 Vibration    34          0.964              1.021              0.441

 Normal termination of Gaussian 09 at Fri Apr  1 11:53:32 2016.
