 Gaussian 09, Revision B.01,
 Gaussian 09:  EM64L-G09RevB.01 12-Aug-2010

 --------------------------------------------------
 # freq=raman b3lyp/6-31+g(2df,p) geom=connectivity
 --------------------------------------------------

 ------------
 300 5000.com
 ------------
 Symbolic Z-matrix:
 Charge =  0 Multiplicity = 1

                         Standard orientation:
 ---------------------------------------------------------------------
 Center     Atomic      Atomic             Coordinates (Angstroms)
 Number     Number       Type             X           Y           Z
 ---------------------------------------------------------------------
      1          8           0        5.059657   -0.351673   -0.277574
      2          6           0        3.707192   -0.106390    0.136899
      3          6           0        3.178484    1.260706   -0.263356
      4          8           0        4.092947    2.319335    0.055518
      5          1           0        4.927217    1.919736   -0.323811
      6          6           0        1.772026    1.545473    0.239405
      7          8           0        1.217412    2.621984   -0.531494
      8          1           0        0.253155    2.810985   -0.344064
      9          6           0        2.958731   -2.542952    0.239721
     10          8           0        4.185692   -3.201658   -0.106396
     11          1           0        4.087776   -4.177092   -0.305305
     12          6           0        2.720573   -1.159036   -0.341150
     13          8           0        1.369131   -0.925166    0.082846
     14          6           0        0.915047    0.392489   -0.259299
     15          8           0       -0.246052    0.471216    0.580054
     16          6           0       -1.514568    0.173708   -0.020267
     17          6           0       -2.076323   -1.156368    0.455437
     18          8           0       -1.101654   -2.182122    0.219983
     19          1           0       -0.253271   -1.773192    0.556148
     20          6           0       -3.366466   -1.504033   -0.269028
     21          8           0       -3.840202   -2.740702    0.281755
     22          1           0       -4.710837   -2.838317   -0.200073
     23          6           0       -2.136962    2.677979   -0.070849
     24          8           0       -1.107824    3.368341    0.653305
     25          1           0       -1.431143    4.310016    0.564348
     26          6           0       -2.547331    1.252660    0.262916
     27          8           0       -3.763239    0.932798   -0.428957
     28          6           0       -4.262545   -0.320899    0.060171
     29          8           0       -5.425511   -0.651561   -0.712699
     30          1           0       -6.143151   -0.894377   -0.123094
     31          1           0        5.609288   -0.500164    0.495379
     32          1           0        0.665498    0.483653   -1.295790
     33          1           0        1.710049    1.697080    1.296795
     34          1           0        3.109213    1.245380   -1.331001
     35          1           0        3.702667   -0.139789    1.206368
     36          1           0        2.751874   -1.213477   -1.409306
     37          1           0        2.150962   -3.171706   -0.071853
     38          1           0        2.921242   -2.460861    1.305908
     39          1           0       -3.020171    3.277181    0.005308
     40          1           0       -1.841783    2.679236   -1.099327
     41          1           0       -2.758312    1.221451    1.311445
     42          1           0       -1.374985    0.116324   -1.079570
     43          1           0       -2.272069   -1.096137    1.505654
     44          1           0       -3.204990   -1.585278   -1.323648
     45          1           0       -4.488243   -0.277017    1.105175
 ---------------------------------------------------------------------

 SCF Done:  E(RB3LYP) =  -1298.00416668     A.U. after   13 cycles

 The electronic state is 1-A.
 Alpha  occ. eigenvalues --  -19.19433 -19.18936 -19.18106 -19.18059 -19.17669
 Alpha  occ. eigenvalues --  -19.17255 -19.16673 -19.15536 -19.14985 -19.13693
 Alpha  occ. eigenvalues --  -19.13501 -10.30731 -10.29983 -10.26289 -10.25745
 Alpha  occ. eigenvalues --  -10.25131 -10.25097 -10.25002 -10.24570 -10.24380
 Alpha  occ. eigenvalues --  -10.23826 -10.23576 -10.23555  -1.10084  -1.09459
 Alpha  occ. eigenvalues --   -1.06290  -1.05192  -1.04420  -1.03715  -1.02892
 Alpha  occ. eigenvalues --   -1.02113  -1.01643  -1.00613  -1.00051  -0.82051
 Alpha  occ. eigenvalues --   -0.80340  -0.79480  -0.78009  -0.71781  -0.69805
 Alpha  occ. eigenvalues --   -0.66986  -0.64501  -0.63012  -0.62433  -0.61617
 Alpha  occ. eigenvalues --   -0.60062  -0.56402  -0.56071  -0.55218  -0.54537
 Alpha  occ. eigenvalues --   -0.54168  -0.53080  -0.52605  -0.51923  -0.51056
 Alpha  occ. eigenvalues --   -0.50702  -0.49847  -0.48939  -0.48341  -0.46737
 Alpha  occ. eigenvalues --   -0.46179  -0.45244  -0.44014  -0.43621  -0.43095
 Alpha  occ. eigenvalues --   -0.42280  -0.41930  -0.40957  -0.40336  -0.39961
 Alpha  occ. eigenvalues --   -0.39450  -0.38561  -0.38079  -0.35949  -0.35687
 Alpha  occ. eigenvalues --   -0.35454  -0.34935  -0.34518  -0.34198  -0.33598
 Alpha  occ. eigenvalues --   -0.32898  -0.31629  -0.31036  -0.30696  -0.29843
 Alpha  occ. eigenvalues --   -0.29232  -0.28684  -0.28516  -0.27974  -0.26596
 Alpha  occ. eigenvalues --   -0.26350
 Alpha virt. eigenvalues --   -0.02433  -0.02013  -0.01410  -0.00054   0.00381
 Alpha virt. eigenvalues --    0.00986   0.01964   0.02193   0.03237   0.03474
 Alpha virt. eigenvalues --    0.03975   0.04271   0.04728   0.05426   0.05723

 Mulliken atomic charges:
              1
     1  O   -0.445921
     2  C   -0.121365
     3  C   -0.037076
     4  O   -0.457856
     5  H    0.345508
     6  C    0.027162
     7  O   -0.445109
     8  H    0.394608
     9  C   -0.342324
    10  O   -0.480772
    11  H    0.353804
    12  C    0.065091
    13  O    0.005345
    14  C   -0.117019
    15  O   -0.030020
    16  C    0.144640
    17  C   -0.113300
    18  O   -0.432288
    19  H    0.380323
    20  C   -0.099062
    21  O   -0.418227
    22  H    0.332946
    23  C   -0.438579
    24  O   -0.426112
    25  H    0.358316
    26  C   -0.128260
    27  O   -0.065088
    28  C    0.054558
    29  O   -0.505324
    30  H    0.351759
    31  H    0.358752
    32  H    0.146370
    33  H    0.149632
    34  H    0.125165
    35  H    0.117619
    36  H    0.114371
    37  H    0.151937
    38  H    0.148895
    39  H    0.151752
    40  H    0.160403
    41  H    0.128519
    42  H    0.116790
    43  H    0.127978
    44  H    0.146600
    45  H    0.144858
 Sum of Mulliken atomic charges =   0.00000

 Dipole moment (field-independent basis, Debye):
    X=             -3.1644    Y=              0.3165    Z=              1.3103  Tot=              3.4395
 Quadrupole moment (field-independent basis, Debye-Ang):
   XX=           -122.9276   YY=           -137.0751   ZZ=           -137.9490
   XY=            -15.9290   XZ=             -2.0628   YZ=              3.1449

  Exact polarizability: 230.134   0.908 197.176   0.511   0.010 143.538
 Approx polarizability: 271.532   0.484 258.467   0.976   0.636 240.700

 ******    7 imaginary frequencies (negative Signs) ******

                     1                      2                      3
                     A                      A                      A
 Frequencies --  -299.3963              -235.2743              -230.6979
 Red. masses --     1.6703                 1.6768                 1.2218
 Frc consts  --     0.0882                 0.0547                 0.0383
 IR Inten    --     3.7585                17.8788               127.2976
 Raman Activ --     0.0403                 0.1384                 1.2498

                     4                      5                      6
                     A                      A                      A
 Frequencies --  -197.7020               -79.3695               -53.2525
 Red. masses --     1.2534                 6.2908                 6.4896
 Frc consts  --     0.0289                 0.0233                 0.0108
 IR Inten    --    81.6222                 0.7069                 1.0539
 Raman Activ --     0.5274                 0.0641                 0.0433

                     7                      8                      9
                     A                      A                      A
 Frequencies --   -35.9788                25.5395                75.9369
 Red. masses --     6.7183                 6.6783                 6.2822
 Frc consts  --     0.0051                 0.0026                 0.0213
 IR Inten    --     1.3687                 0.2411                 0.9730
 Raman Activ --     0.0458                 0.0894                 0.3413

                    10                     11                     12
                     A                      A                      A
 Frequencies --    87.7571               105.6773               124.4950
 Red. masses --     6.0354                 5.0105                 5.6103
 Frc consts  --     0.0274                 0.0330                 0.0512
 IR Inten    --     3.9286                 8.1959                 1.1262
 Raman Activ --     0.0877                 0.0964                 0.0293

                    13                     14                     15
                     A                      A                      A
 Frequencies --   152.9453               177.5213               185.2572
 Red. masses --     6.2790                 7.0034                 5.6546
 Frc consts  --     0.0865                 0.1300                 0.1143
 IR Inten    --     5.1051                 0.0419                 2.9999
 Raman Activ --     0.3218                 0.4715                 0.6113

                    16                     17                     18
                     A                      A                      A
 Frequencies --   210.1045               225.3981               256.3470
 Red. masses --     6.7572                 6.2525                 4.4709
 Frc consts  --     0.1757                 0.1872                 0.1731
 IR Inten    --     1.0220                 3.0460                13.7396
 Raman Activ --     1.4913                 1.0971                 0.3639

                    19                     20                     21
                     A                      A                      A
 Frequencies --   279.0864               295.7966               305.2889
 Red. masses --     4.9749                 5.1700                 4.9716
 Frc consts  --     0.2283                 0.2665                 0.2730
 IR Inten    --     2.8260                 2.4964                 7.9262
 Raman Activ --     0.1307                 0.0810                 0.7896

                    22                     23                     24
                     A                      A                      A
 Frequencies --   313.8086               317.0158               328.8884
 Red. masses --     6.0768                 4.5964                 6.0946
 Frc consts  --     0.3526                 0.2722                 0.3884
 IR Inten    --     0.7912                 4.9497                 2.2290
 Raman Activ --     1.9947                 0.7094                 1.9582

                    25                     26                     27
                     A                      A                      A
 Frequencies --   334.9827               351.3104               378.0460
 Red. masses --     6.1876                 4.7565                 5.3839
 Frc consts  --     0.4091                 0.3459                 0.4534
 IR Inten    --     8.9746                 3.6138                 0.0832
 Raman Activ --     4.0214                 0.2211                 0.5848

                    28                     29                     30
                     A                      A                      A
 Frequencies --   400.7462               421.5361               427.3587
 Red. masses --     4.3333                 6.3300                 4.6638
 Frc consts  --     0.4100                 0.6627                 0.5018
 IR Inten    --    12.1578                 0.9576                 4.3018
 Raman Activ --     3.0825                 6.6187                 1.0591

                    31                     32                     33
                     A                      A                      A
 Frequencies --   447.2827               474.4852               496.1982
 Red. masses --     6.0832                 4.3214                 5.0273
 Frc consts  --     0.7171                 0.5732                 0.7293
 IR Inten    --     0.9844                 3.1134                 9.7966
 Raman Activ --     3.3817                 4.3289                 0.8169

                    34                     35                     36
                     A                      A                      A
 Frequencies --   517.0968               534.1020               562.6169
 Red. masses --     3.5984                 3.0885                 4.9242
 Frc consts  --     0.5669                 0.5191                 0.9184
 IR Inten    --    13.1366                 6.9242                10.2815
 Raman Activ --     0.9832                 4.1670                 1.1298

                    37                     38                     39
                     A                      A                      A
 Frequencies --   580.6158               605.9300               621.2244
 Red. masses --     3.2594                 3.6692                 4.0882
 Frc consts  --     0.6474                 0.7937                 0.9296
 IR Inten    --    22.1699                10.3853                49.1660
 Raman Activ --     0.8989                 0.9328                 0.5206

                    40                     41                     42
                     A                      A                      A
 Frequencies --   642.7530               656.3399               695.2038
 Red. masses --     3.3490                 1.2475                 4.0519
 Frc consts  --     0.8152                 0.3166                 1.1538
 IR Inten    --    14.4446                98.0674                26.8876
 Raman Activ --     0.6693                 1.5360                 2.2580

                    43                     44                     45
                     A                      A                      A
 Frequencies --   725.3661               768.5187               777.8266
 Red. masses --     1.1038                 1.1174                 1.1219
 Frc consts  --     0.3422                 0.3888                 0.3999
 IR Inten    --   136.3066                54.1853                83.4745
 Raman Activ --     1.6603                 0.9283                 1.6196

                    46                     47                     48
                     A                      A                      A
 Frequencies --   792.5520               824.2433               846.0314
 Red. masses --     1.1075                 1.1006                 1.7350
 Frc consts  --     0.4099                 0.4406                 0.7317
 IR Inten    --    91.7787               138.5126                 4.5306
 Raman Activ --     1.5211                 4.1753                 0.2798

                    49                     50                     51
                     A                      A                      A
 Frequencies --   846.8242               927.3287               965.0545
 Red. masses --     1.7624                 5.8337                 4.2632
 Frc consts  --     0.7446                 2.9557                 2.3393
 IR Inten    --     1.0342                75.7299               144.8887
 Raman Activ --     0.8199                 2.2939                 0.6941

                    52                     53                     54
                     A                      A                      A
 Frequencies --   975.3966               986.6706               997.4657
 Red. masses --     4.4158                 6.6698                 6.3466
 Frc consts  --     2.4753                 3.8257                 3.7204
 IR Inten    --    91.0006                 4.9741                50.5819
 Raman Activ --     2.4551                 1.3599                 0.9050

                    55                     56                     57
                     A                      A                      A
 Frequencies --  1008.4518              1014.8436              1024.0509
 Red. masses --     5.5282                 5.8345                 6.2776
 Frc consts  --     3.3124                 3.5404                 3.8787
 IR Inten    --   436.2173                27.7662                91.5279
 Raman Activ --     1.7666                 3.9541                 3.2890

                    58                     59                     60
                     A                      A                      A
 Frequencies --  1038.9680              1047.6498              1052.5156
 Red. masses --     7.8418                 6.5072                 2.9685
 Frc consts  --     4.9873                 4.2080                 1.9375
 IR Inten    --   393.2251                26.1132                23.4234
 Raman Activ --     2.5500                 2.6801                 9.7607

                    61                     62                     63
                     A                      A                      A
 Frequencies --  1067.7504              1070.7446              1076.3360
 Red. masses --     3.9471                 2.1468                 3.1073
 Frc consts  --     2.6514                 1.4502                 2.1209
 IR Inten    --   147.4418               120.4494                34.7374
 Raman Activ --    21.8755                 2.7279                 4.6383

                    64                     65                     66
                     A                      A                      A
 Frequencies --  1089.2720              1093.7415              1105.3469
 Red. masses --     2.9573                 3.4087                 2.0823
 Frc consts  --     2.0673                 2.4025                 1.4989
 IR Inten    --    25.9093                17.3459                39.6701
 Raman Activ --     0.8873                 9.0321                 4.2231

                    67                     68                     69
                     A                      A                      A
 Frequencies --  1117.8871              1122.2042              1131.1982
 Red. masses --     2.7506                 2.1305                 2.4935
 Frc consts  --     2.0252                 1.5808                 1.8799
 IR Inten    --     6.0972                 6.6582                 6.8056
 Raman Activ --     3.8621                 5.1497                 7.9429

                    70                     71                     72
                     A                      A                      A
 Frequencies --  1135.4915              1145.3486              1153.5640
 Red. masses --     3.3338                 2.9542                 1.7879
 Frc consts  --     2.5326                 2.2833                 1.4018
 IR Inten    --    40.3906                10.1826                16.5975
 Raman Activ --     2.7560                13.4021                 4.0984

                    73                     74                     75
                     A                      A                      A
 Frequencies --  1160.4066              1168.8379              1187.0847
 Red. masses --     1.7440                 2.1937                 2.0605
 Frc consts  --     1.3836                 1.7658                 1.7107
 IR Inten    --     9.4496                17.2874                 1.5158
 Raman Activ --     1.4824                 1.9835                 1.6820

                    76                     77                     78
                     A                      A                      A
 Frequencies --  1194.2612              1199.0712              1205.2212
 Red. masses --     1.3891                 1.3277                 1.4137
 Frc consts  --     1.1673                 1.1247                 1.2098
 IR Inten    --    15.0052                 6.0056                19.3912
 Raman Activ --     2.5073                 2.2911                 1.9234

                    79                     80                     81
                     A                      A                      A
 Frequencies --  1224.6952              1236.3962              1240.9339
 Red. masses --     1.1664                 1.3704                 1.1808
 Frc consts  --     1.0308                 1.2343                 1.0713
 IR Inten    --     3.2434                17.2387                21.2433
 Raman Activ --     1.8112                 1.2366                 1.1186

                    82                     83                     84
                     A                      A                      A
 Frequencies --  1257.5570              1275.6203              1281.2912
 Red. masses --     1.3248                 1.5132                 1.3873
 Frc consts  --     1.2344                 1.4507                 1.3419
 IR Inten    --     9.5056                29.3723                 8.1398
 Raman Activ --     4.3478                 3.5093                 2.0326

                    85                     86                     87
                     A                      A                      A
 Frequencies --  1288.0741              1294.7846              1303.7325
 Red. masses --     1.2566                 1.3089                 1.3880
 Frc consts  --     1.2284                 1.2928                 1.3900
 IR Inten    --    18.8958                 8.8059                27.8581
 Raman Activ --     1.4524                 2.3713                 6.4918

                    88                     89                     90
                     A                      A                      A
 Frequencies --  1309.3779              1316.9512              1323.2687
 Red. masses --     1.3260                 1.2790                 1.4079
 Frc consts  --     1.3394                 1.3069                 1.4525
 IR Inten    --    11.0508                20.1065                13.4962
 Raman Activ --     1.6715                 6.5535                 8.8069

                    91                     92                     93
                     A                      A                      A
 Frequencies --  1325.2481              1331.0490              1349.4698
 Red. masses --     1.3164                 1.1431                 1.4022
 Frc consts  --     1.3622                 1.1932                 1.5045
 IR Inten    --    10.0947                60.6595                 2.2346
 Raman Activ --     2.7188                 4.3659                 5.4511

                    94                     95                     96
                     A                      A                      A
 Frequencies --  1355.0496              1361.2383              1368.5680
 Red. masses --     1.1958                 1.4878                 1.3938
 Frc consts  --     1.2936                 1.6243                 1.5381
 IR Inten    --    20.9824                 6.8588                13.5614
 Raman Activ --     1.6322                 6.1541                 7.9296

                    97                     98                     99
                     A                      A                      A
 Frequencies --  1376.6960              1395.8584              1397.3405
 Red. masses --     1.3175                 1.3794                 1.3129
 Frc consts  --     1.4713                 1.5835                 1.5104
 IR Inten    --    22.8360                 4.5718                 7.9046
 Raman Activ --     3.7163                 4.6810                 3.9128

                   100                    101                    102
                     A                      A                      A
 Frequencies --  1420.8738              1425.0616              1460.3211
 Red. masses --     1.3274                 1.4074                 1.1001
 Frc consts  --     1.5789                 1.6840                 1.3822
 IR Inten    --    23.2493                16.7438                 8.6006
 Raman Activ --     0.6868                 1.5698                 3.7146

                   103                    104                    105
                     A                      A                      A
 Frequencies --  1462.6068              1467.0980              1495.8092
 Red. masses --     1.2971                 1.0770                 1.2991
 Frc consts  --     1.6348                 1.3658                 1.7125
 IR Inten    --    21.5535                 9.4773                15.5385
 Raman Activ --     1.1209                 4.8424                 0.9139

                   106                    107                    108
                     A                      A                      A
 Frequencies --  1504.2431              1510.6870              3250.1110
 Red. masses --     1.3302                 1.2929                 1.0600
 Frc consts  --     1.7734                 1.7384                 6.5971
 IR Inten    --    64.4340                61.5794                44.8625
 Raman Activ --     1.9156                 1.8289                70.9717

                   109                    110                    111
                     A                      A                      A
 Frequencies --  3256.6347              3259.0952              3261.6500
 Red. masses --     1.0661                 1.0715                 1.0803
 Frc consts  --     6.6615                 6.7059                 6.7713
 IR Inten    --    15.1567                16.3910                20.2082
 Raman Activ --     8.5890               193.8068                20.5848

                   112                    113                    114
                     A                      A                      A
 Frequencies --  3268.3998              3269.0162              3282.7486
 Red. masses --     1.0821                 1.0826                 1.0858
 Frc consts  --     6.8109                 6.8166                 6.8938
 IR Inten    --    15.6374                 5.3219                15.9772
 Raman Activ --    20.3985                81.6326                 0.9697

                   115                    116                    117
                     A                      A                      A
 Frequencies --  3284.4511              3287.9842              3291.2166
 Red. masses --     1.0858                 1.0854                 1.0695
 Frc consts  --     6.9012                 6.9134                 6.8258
 IR Inten    --    64.7770                14.1887               499.5975
 Raman Activ --    36.2597               161.7168               201.5818

                   118                    119                    120
                     A                      A                      A
 Frequencies --  3299.8976              3303.8701              3306.4082
 Red. masses --     1.0865                 1.0916                 1.0982
 Frc consts  --     6.9710                 7.0205                 7.0736
 IR Inten    --     6.3250                22.7198                62.6314
 Raman Activ --    69.1103                31.1380                50.9890

                   121                    122                    123
                     A                      A                      A
 Frequencies --  3311.1745              3314.9532              3322.7826
 Red. masses --     1.0862                 1.1023                 1.0673
 Frc consts  --     7.0163                 7.1371                 6.9431
 IR Inten    --    55.5389                62.7511               392.3526
 Raman Activ --    20.5471                22.4017               121.1379

                   124                    125                    126
                     A                      A                      A
 Frequencies --  3351.9474              3354.1304              3357.7649
 Red. masses --     1.0644                 1.0717                 1.0641
 Frc consts  --     7.0460                 7.1034                 7.0687
 IR Inten    --    34.8719                45.8693                25.3272
 Raman Activ --    73.1684               172.7483               121.9616

                   127                    128                    129
                     A                      A                      A
 Frequencies --  3371.4756              3876.3286              3877.5471
 Red. masses --     1.0669                 1.0674                 1.0677
 Frc consts  --     7.1452                 9.4493                 9.4582
 IR Inten    --    54.4356                76.4554                87.9431
 Raman Activ --   122.2288               102.8151                86.4536

 - Thermochemistry -
 -------------------
 Temperature   298.150 Kelvin.  Pressure   1.00000 Atm.
 Atom     1 has atomic number  8 and mass  15.99491

 Molecular mass:   342.11621 amu.
 Principal axes and moments of inertia in atomic units:
                           1         2         3
     Eigenvalues --  4421.68781********************
           X            0.99997  -0.00780  -0.00066
           Y            0.00780   0.99997  -0.00112
           Z            0.00067   0.00112   1.00000
 This molecule is an asymmetric top.
 Rotational symmetry number  1.
 Warning -- assumption of classical behavior for rotation
           may cause significant error
 Rotational temperatures (Kelvin)      0.01959     0.00717     0.00539
 Rotational constants (GHZ):           0.40816     0.14946     0.11239
    7 imaginary frequencies ignored.
 Zero-point vibrational energy     973626.9 (Joules/Mol)
                                  232.70241 (Kcal/Mol)
 Warning -- explicit consideration of  31 degrees of freedom as
           vibrations may cause significant error
 Vibrational temperatures:     36.75   109.26   126.26   152.05   179.12
          (Kelvin)            220.05   255.41   266.54   302.29   324.30
                              368.83   401.54   425.58   439.24   451.50
                              456.11   473.20   481.96   505.46   543.92
                              576.58   606.50   614.87   643.54   682.68
                              713.92   743.99   768.45   809.48   835.38
                              871.80   893.80   924.78   944.33  1000.24
                             1043.64  1105.73  1119.12  1140.30  1185.90
                             1217.25  1218.39  1334.22  1388.50  1403.38
                             1419.60  1435.13  1450.94  1460.13  1473.38
                             1494.84  1507.33  1514.33  1536.25  1540.56
                             1548.61  1567.22  1573.65  1590.35  1608.39
                             1614.60  1627.54  1633.72  1647.90  1659.72
                             1669.56  1681.69  1707.95  1718.27  1725.19
                             1734.04  1762.06  1778.90  1785.42  1809.34
                             1835.33  1843.49  1853.25  1862.90  1875.78
                             1883.90  1894.80  1903.89  1906.73  1915.08
                             1941.58  1949.61  1958.52  1969.06  1980.76
                             2008.33  2010.46  2044.32  2050.34  2101.07
                             2104.36  2110.82  2152.13  2164.27  2173.54
                             4676.18  4685.57  4689.11  4692.78  4702.49
                             4703.38  4723.14  4725.59  4730.67  4735.32
                             4747.81  4753.53  4757.18  4764.04  4769.47
                             4780.74  4822.70  4825.84  4831.07  4850.80
                             5577.17  5578.92

 Zero-point correction=                           0.370835 (Hartree/Particle)
 Thermal correction to Energy=                    0.389118
 Thermal correction to Enthalpy=                  0.390062
 Thermal correction to Gibbs Free Energy=         0.325184
 Sum of electronic and zero-point Energies=          -1297.633332
 Sum of electronic and thermal Energies=             -1297.615048
 Sum of electronic and thermal Enthalpies=           -1297.614104
 Sum of electronic and thermal Free Energies=        -1297.678982

                     E (Thermal)             CV                S
                      KCal/Mol        Cal/Mol-Kelvin    Cal/Mol-Kelvin
 Total                  244.175             75.884            136.547
 Electronic               0.000              0.000              0.000
 Translational            0.889              2.981             43.384
 Rotational               0.889              2.981             35.104
 Vibrational            242.398             69.923             58.058
 Vibration     1          0.593              1.985              6.149
 Vibration     2          0.599              1.965              3.993
 Vibration     3          0.601              1.958              3.709
 Vibration     4          0.605              1.945              3.347
 Vibration     5          0.610              1.929              3.029
 Vibration     6          0.619              1.899              2.635
 Vibration     7          0.628              1.870              2.354
 Vibration     8          0.631              1.860              2.275
 Vibration     9          0.642              1.825              2.043
 Vibration    10          0.650              1.802              1.915
 Vibration    11          0.666              1.752              1.687
 Vibration    12          0.679              1.712              1.539
 Vibration    13          0.690              1.682              1.441
 Vibration    14          0.696              1.664              1.388
 Vibration    15          0.702              1.647              1.342
 Vibration    16          0.704              1.641              1.325
 Vibration    17          0.712              1.618              1.266
 Vibration    18          0.716              1.606              1.236
 Vibration    19          0.728              1.573              1.160
 Vibration    20          0.748              1.517              1.047
 Vibration    21          0.767              1.469              0.960
 Vibration    22          0.784              1.423              0.887
 Vibration    23          0.789              1.411              0.867
 Vibration    24          0.806              1.367              0.804
 Vibration    25          0.831              1.307              0.725
 Vibration    26          0.852              1.258              0.668
 Vibration    27          0.872              1.212              0.617
 Vibration    28          0.889              1.175              0.578
 Vibration    29          0.918              1.112              0.519
 Vibration    30          0.937              1.073              0.484
 Vibration    31          0.965              1.019              0.440

 Normal termination of Gaussian 09 at Fri Feb 12 14:00:22 2016.
