 Gaussian 09, Revision B.01,
 Gaussian 09:  EM64L-G09RevB.01 12-Aug-2010

 ------------------------------------------------
 # freq=raman b3lyp/6-31+g(d,p) geom=connectivity
 ------------------------------------------------

 ------------
 290 7000.com
 ------------
 Symbolic Z-matrix:
 Charge =  0 Multiplicity = 1

                         Standard orientation:
 ---------------------------------------------------------------------
 Center     Atomic      Atomic             Coordinates (Angstroms)
 Number     Number       Type             X           Y           Z
 ---------------------------------------------------------------------
      1          8           0       -4.905579   -0.347744    0.517737
      2          6           0       -3.677602   -0.235638   -0.215042
      3          6           0       -3.247683    1.189417    0.092029
      4          8           0       -4.122965    2.299725   -0.156232
      5          1           0       -4.983111    2.007779    0.261225
      6          6           0       -1.832610    1.550443   -0.328892
      7          8           0       -1.359484    2.851321    0.048239
      8          1           0       -0.384380    2.873066   -0.174193
      9          6           0       -2.974788   -2.563673   -0.221128
     10          8           0       -4.121451   -3.273698    0.266651
     11          1           0       -3.927711   -4.255084    0.248670
     12          6           0       -2.688834   -1.208645    0.404840
     13          8           0       -1.366186   -0.890158   -0.050778
     14          6           0       -0.912040    0.452281    0.177646
     15          8           0        0.274507    0.593458   -0.617024
     16          6           0        1.450463    0.221173    0.115811
     17          6           0        1.935512   -1.115299   -0.422312
     18          8           0        0.987414   -2.152124   -0.129734
     19          1           0        0.148072   -1.694958   -0.421631
     20          6           0        3.299534   -1.541045    0.095695
     21          8           0        3.800648   -2.734988   -0.523120
     22          1           0        4.750628   -2.913188   -0.267380
     23          6           0        2.311293    2.707360    0.263728
     24          8           0        1.189819    3.401502   -0.300072
     25          1           0        1.196896    4.394460   -0.179287
     26          6           0        2.543289    1.252611   -0.112309
     27          8           0        3.778761    0.798011    0.457999
     28          6           0        4.337867   -0.436974   -0.012969
     29          8           0        5.552360   -0.690614    0.707045
     30          1           0        6.269958   -0.830504    0.084884
     31          1           0        4.585353   -0.316746   -1.046988
     32          1           0        3.181613   -1.756426    1.137139
     33          1           0        2.005543   -1.029129   -1.486535
     34          1           0        1.227475    0.141648    1.159292
     35          1           0        2.701090    1.260655   -1.170579
     36          1           0        3.192575    3.251838   -0.004198
     37          1           0        2.212793    2.751154    1.328284
     38          1           0       -5.640789   -0.405892   -0.096823
     39          1           0       -2.115600   -3.183424   -0.070778
     40          1           0       -3.100262   -2.419806   -1.273962
     41          1           0       -2.756006   -1.233908    1.472431
     42          1           0       -3.814502   -0.402316   -1.263077
     43          1           0       -3.184746    1.179055    1.160126
     44          1           0       -1.807665    1.511575   -1.397894
     45          1           0       -0.686381    0.600565    1.213015
 ---------------------------------------------------------------------

 SCF Done:  E(RB3LYP) =  -1297.93319458     A.U. after   14 cycles

 The electronic state is 1-A.
 Alpha  occ. eigenvalues --  -19.19861 -19.19852 -19.19579 -19.19535 -19.18536
 Alpha  occ. eigenvalues --  -19.17869 -19.17140 -19.16848 -19.16022 -19.14523
 Alpha  occ. eigenvalues --  -19.13819 -10.31462 -10.30948 -10.26945 -10.26464
 Alpha  occ. eigenvalues --  -10.26292 -10.26024 -10.25914 -10.24981 -10.24639
 Alpha  occ. eigenvalues --  -10.24503 -10.23959 -10.23841  -1.10637  -1.08987
 Alpha  occ. eigenvalues --   -1.05978  -1.05568  -1.04620  -1.03739  -1.02909
 Alpha  occ. eigenvalues --   -1.02721  -1.01889  -1.00927  -0.99711  -0.82433
 Alpha  occ. eigenvalues --   -0.80731  -0.79605  -0.78441  -0.72536  -0.70078
 Alpha  occ. eigenvalues --   -0.67373  -0.65256  -0.63559  -0.63204  -0.61397
 Alpha  occ. eigenvalues --   -0.59971  -0.56667  -0.56448  -0.55765  -0.55118
 Alpha  occ. eigenvalues --   -0.53900  -0.53253  -0.53185  -0.51818  -0.50940
 Alpha  occ. eigenvalues --   -0.50789  -0.50348  -0.50069  -0.48692  -0.47092
 Alpha  occ. eigenvalues --   -0.46568  -0.45046  -0.44217  -0.43677  -0.43474
 Alpha  occ. eigenvalues --   -0.42908  -0.41388  -0.41038  -0.39939  -0.39189
 Alpha  occ. eigenvalues --   -0.38715  -0.38046  -0.37486  -0.37142  -0.36650
 Alpha  occ. eigenvalues --   -0.35820  -0.34906  -0.34643  -0.34349  -0.33508
 Alpha  occ. eigenvalues --   -0.33054  -0.31408  -0.31317  -0.29875  -0.29774
 Alpha  occ. eigenvalues --   -0.29500  -0.29094  -0.27999  -0.27165  -0.26585
 Alpha  occ. eigenvalues --   -0.26460
 Alpha virt. eigenvalues --   -0.02377  -0.02017  -0.01720  -0.00261   0.00378
 Alpha virt. eigenvalues --    0.00788   0.01738   0.02151   0.03290   0.03667
 Alpha virt. eigenvalues --    0.03789   0.04430   0.05049   0.05179   0.05726

 Mulliken atomic charges:
              1
     1  O   -0.556989
     2  C    0.096946
     3  C    0.033038
     4  O   -0.495472
     5  H    0.352031
     6  C   -0.127958
     7  O   -0.549794
     8  H    0.462759
     9  C   -0.112159
    10  O   -0.541053
    11  H    0.358601
    12  C    0.034709
    13  O   -0.417975
    14  C    0.298354
    15  O   -0.322355
    16  C   -0.011686
    17  C   -0.050123
    18  O   -0.486722
    19  H    0.413246
    20  C    0.147778
    21  O   -0.516364
    22  H    0.348250
    23  C    0.027905
    24  O   -0.633419
    25  H    0.401933
    26  C   -0.028687
    27  O   -0.337002
    28  C    0.115869
    29  O   -0.540249
    30  H    0.364061
    31  H    0.118525
    32  H    0.147489
    33  H    0.142653
    34  H    0.130661
    35  H    0.130243
    36  H    0.144521
    37  H    0.147277
    38  H    0.368758
    39  H    0.142260
    40  H    0.129904
    41  H    0.156998
    42  H    0.131703
    43  H    0.119074
    44  H    0.138641
    45  H    0.123819
 Sum of Mulliken atomic charges =   0.00000

 Dipole moment (field-independent basis, Debye):
    X=              2.4347    Y=              0.0205    Z=             -1.4415  Tot=              2.8295
 Quadrupole moment (field-independent basis, Debye-Ang):
   XX=           -117.2085   YY=           -137.1704   ZZ=           -140.6217
   XY=             15.6148   XZ=             -2.9740   YZ=              2.0602

  Exact polarizability: 227.095  -2.117 194.449  -0.710   0.704 141.018
 Approx polarizability: 263.861  -2.575 251.215  -1.826  -0.830 230.414

 ******    8 imaginary frequencies (negative Signs) ******

                     1                      2                      3
                     A                      A                      A
 Frequencies --  -299.6848              -284.7887              -276.5439
 Red. masses --     1.1658                 1.8001                 1.2228
 Frc consts  --     0.0617                 0.0860                 0.0551
 IR Inten    --   121.0442                 4.2449               123.1522
 Raman Activ --     1.2232                 0.0543                 0.8799

                     4                      5                      6
                     A                      A                      A
 Frequencies --  -225.0031               -84.0202               -75.8249
 Red. masses --     1.9378                 6.8692                 5.7919
 Frc consts  --     0.0578                 0.0286                 0.0196
 IR Inten    --     3.8733                 0.7404                 0.9786
 Raman Activ --     0.1104                 0.0404                 0.0543

                     7                      8                      9
                     A                      A                      A
 Frequencies --   -39.8090               -35.2320                53.0796
 Red. masses --     6.4308                 6.6579                 6.5295
 Frc consts  --     0.0060                 0.0049                 0.0108
 IR Inten    --     1.0433                 0.5094                 0.8259
 Raman Activ --     0.0392                 0.0327                 0.0300

                    10                     11                     12
                     A                      A                      A
 Frequencies --    75.5987                86.0722               109.4946
 Red. masses --     6.0760                 6.4866                 5.6324
 Frc consts  --     0.0205                 0.0283                 0.0398
 IR Inten    --     1.3016                 0.7687                 2.5846
 Raman Activ --     0.1823                 0.1072                 0.1686

                    13                     14                     15
                     A                      A                      A
 Frequencies --   142.6741               178.1160               188.8282
 Red. masses --     6.1823                 5.6077                 7.5141
 Frc consts  --     0.0741                 0.1048                 0.1579
 IR Inten    --     8.1686                 0.9881                 0.4523
 Raman Activ --     0.1149                 0.1055                 0.7109

                    16                     17                     18
                     A                      A                      A
 Frequencies --   216.5431               233.3793               259.2777
 Red. masses --     7.2163                 5.7800                 4.3576
 Frc consts  --     0.1994                 0.1855                 0.1726
 IR Inten    --     0.6910                 3.1983                 7.4661
 Raman Activ --     3.2736                 0.1233                 0.1919

                    19                     20                     21
                     A                      A                      A
 Frequencies --   272.7818               284.2511               302.2871
 Red. masses --     4.5808                 4.5941                 4.7430
 Frc consts  --     0.2008                 0.2187                 0.2554
 IR Inten    --    11.7067                 0.0704                 4.5594
 Raman Activ --     0.4283                 0.1925                 0.2242

                    22                     23                     24
                     A                      A                      A
 Frequencies --   304.2461               314.6027               323.3070
 Red. masses --     4.6854                 6.6262                 7.0708
 Frc consts  --     0.2555                 0.3864                 0.4355
 IR Inten    --     9.2359                 4.6229                 1.6974
 Raman Activ --     0.3797                 5.0793                 3.6803

                    25                     26                     27
                     A                      A                      A
 Frequencies --   349.0497               360.5321               389.6019
 Red. masses --     6.7203                 5.0152                 6.7944
 Frc consts  --     0.4824                 0.3841                 0.6076
 IR Inten    --     6.9696                 2.5193                 2.5250
 Raman Activ --     1.2749                 0.0585                 1.1501

                    28                     29                     30
                     A                      A                      A
 Frequencies --   414.0156               418.4756               431.3545
 Red. masses --     5.8320                 3.9510                 4.8061
 Frc consts  --     0.5890                 0.4077                 0.5269
 IR Inten    --     5.1317                19.7416                 5.2026
 Raman Activ --     3.4630                 7.4478                 1.2394

                    31                     32                     33
                     A                      A                      A
 Frequencies --   437.5407               477.9403               482.7849
 Red. masses --     6.2815                 4.8185                 3.5089
 Frc consts  --     0.7085                 0.6485                 0.4819
 IR Inten    --     4.0208                 8.5892                13.4390
 Raman Activ --     1.5650                 5.9724                 0.5009

                    34                     35                     36
                     A                      A                      A
 Frequencies --   510.3138               543.3478               572.7503
 Red. masses --     4.7637                 3.0471                 4.6105
 Frc consts  --     0.7309                 0.5300                 0.8911
 IR Inten    --     9.5267                13.1887                 6.1296
 Raman Activ --     2.0776                 2.3161                 1.7684

                    37                     38                     39
                     A                      A                      A
 Frequencies --   590.1508               596.2412               607.9281
 Red. masses --     3.7533                 4.4280                 5.1226
 Frc consts  --     0.7702                 0.9275                 1.1154
 IR Inten    --    30.5992                20.8638                24.1256
 Raman Activ --     1.2349                 0.4008                 0.7583

                    40                     41                     42
                     A                      A                      A
 Frequencies --   644.5761               658.1457               672.8387
 Red. masses --     3.0250                 1.1153                 1.1967
 Frc consts  --     0.7405                 0.2846                 0.3192
 IR Inten    --    15.9787                98.9376                93.3383
 Raman Activ --     0.4270                 2.1770                 0.9921

                    43                     44                     45
                     A                      A                      A
 Frequencies --   679.6946               689.8449               768.3682
 Red. masses --     1.0563                 3.8240                 1.0827
 Frc consts  --     0.2875                 1.0722                 0.3766
 IR Inten    --   134.0842                17.1505                88.4849
 Raman Activ --     2.5385                 1.1460                 1.8171

                    46                     47                     48
                     A                      A                      A
 Frequencies --   803.8267               851.8462               863.7749
 Red. masses --     1.1223                 1.2779                 1.6861
 Frc consts  --     0.4273                 0.5464                 0.7412
 IR Inten    --   124.0604                48.1654                 2.5301
 Raman Activ --     3.5007                 1.3600                 0.5673

                    49                     50                     51
                     A                      A                      A
 Frequencies --   877.1154               939.4917               961.9862
 Red. masses --     1.3564                 4.8153                 5.1523
 Frc consts  --     0.6148                 2.5041                 2.8093
 IR Inten    --    31.8398               136.0165                44.8402
 Raman Activ --     0.4423                 2.8219                 0.1542

                    52                     53                     54
                     A                      A                      A
 Frequencies --   983.2350               995.0782              1010.5785
 Red. masses --     5.1582                 6.4376                 4.5757
 Frc consts  --     2.9381                 3.7557                 2.7533
 IR Inten    --    94.0820                45.6979               116.8719
 Raman Activ --     3.2954                 2.0560                 0.7071

                    55                     56                     57
                     A                      A                      A
 Frequencies --  1019.4186              1025.8828              1033.2838
 Red. masses --     6.1038                 5.2201                 4.8203
 Frc consts  --     3.7373                 3.2369                 3.0322
 IR Inten    --   228.9441                24.6272               110.6691
 Raman Activ --     2.1970                 1.2495                 3.5919

                    58                     59                     60
                     A                      A                      A
 Frequencies --  1043.5428              1054.9763              1069.2420
 Red. masses --     2.6525                 6.2599                 4.1136
 Frc consts  --     1.7019                 4.1049                 2.7709
 IR Inten    --   134.4717               388.8861               100.8657
 Raman Activ --     4.0502                 3.7898                 5.9809

                    61                     62                     63
                     A                      A                      A
 Frequencies --  1074.3951              1080.0691              1091.6858
 Red. masses --     4.5129                 4.8063                 4.9899
 Frc consts  --     3.0692                 3.3034                 3.5038
 IR Inten    --   106.8771                69.4318               124.2420
 Raman Activ --     2.0168                 2.1496                18.6950

                    64                     65                     66
                     A                      A                      A
 Frequencies --  1098.9255              1116.9629              1117.7092
 Red. masses --     3.3504                 2.9958                 2.1808
 Frc consts  --     2.3838                 2.2021                 1.6051
 IR Inten    --     4.0890                41.0022                14.3235
 Raman Activ --    13.3101                 3.8856                 0.5476

                    67                     68                     69
                     A                      A                      A
 Frequencies --  1124.2117              1126.9596              1136.0860
 Red. masses --     2.5635                 2.2095                 2.2905
 Frc consts  --     1.9089                 1.6534                 1.7418
 IR Inten    --     3.0273               100.6832                67.4235
 Raman Activ --     9.9499                 1.7347                 3.8153

                    70                     71                     72
                     A                      A                      A
 Frequencies --  1150.5668              1154.9402              1164.0830
 Red. masses --     2.3311                 2.0009                 1.6831
 Frc consts  --     1.8181                 1.5725                 1.3438
 IR Inten    --    38.0735                 1.0101                20.1670
 Raman Activ --     2.1627                 5.3447                 2.1210

                    73                     74                     75
                     A                      A                      A
 Frequencies --  1166.8451              1179.0079              1187.0615
 Red. masses --     2.2940                 1.5143                 1.6296
 Frc consts  --     1.8402                 1.2402                 1.3530
 IR Inten    --     3.3009                25.8284                12.9688
 Raman Activ --     4.4994                 2.4901                 1.7142

                    76                     77                     78
                     A                      A                      A
 Frequencies --  1194.5403              1221.4999              1239.8290
 Red. masses --     1.7531                 1.5207                 1.3099
 Frc consts  --     1.4739                 1.3369                 1.1863
 IR Inten    --    23.0119                 4.6753                 3.2169
 Raman Activ --     1.0070                 3.0637                 1.7424

                    79                     80                     81
                     A                      A                      A
 Frequencies --  1247.4520              1254.2506              1264.4059
 Red. masses --     1.4392                 1.3255                 1.1888
 Frc consts  --     1.3196                 1.2286                 1.1198
 IR Inten    --     7.3645                24.1107                18.2538
 Raman Activ --     2.3845                 1.0173                 0.7025

                    82                     83                     84
                     A                      A                      A
 Frequencies --  1273.8914              1281.8345              1286.4952
 Red. masses --     1.2430                 1.3033                 1.2768
 Frc consts  --     1.1885                 1.2617                 1.2450
 IR Inten    --    12.6693                 7.2459                 8.3322
 Raman Activ --     5.0607                 2.0623                 1.9206

                    85                     86                     87
                     A                      A                      A
 Frequencies --  1287.8938              1295.4560              1305.3859
 Red. masses --     1.2399                 1.2615                 1.2373
 Frc consts  --     1.2117                 1.2474                 1.2422
 IR Inten    --     2.7333                27.9437                30.8604
 Raman Activ --     5.1390                 1.5266                 6.1259

                    88                     89                     90
                     A                      A                      A
 Frequencies --  1314.2155              1325.9359              1328.4480
 Red. masses --     1.2755                 1.4860                 1.2831
 Frc consts  --     1.2980                 1.5393                 1.3342
 IR Inten    --     6.3275                 8.3436                 9.6777
 Raman Activ --     2.9490                 3.5213                 9.6526

                    91                     92                     93
                     A                      A                      A
 Frequencies --  1336.6251              1345.8299              1346.5761
 Red. masses --     1.4907                 1.2464                 1.2396
 Frc consts  --     1.5691                 1.3301                 1.3243
 IR Inten    --    40.4674                46.2427                47.1254
 Raman Activ --     4.9835                 7.9899                 4.2494

                    94                     95                     96
                     A                      A                      A
 Frequencies --  1351.6515              1377.4675              1383.4191
 Red. masses --     1.1571                 1.4084                 1.2920
 Frc consts  --     1.2455                 1.5745                 1.4569
 IR Inten    --    16.1275                 0.2077                 3.7785
 Raman Activ --     4.9948                 9.6949                 3.8432

                    97                     98                     99
                     A                      A                      A
 Frequencies --  1387.1295              1402.5481              1407.5674
 Red. masses --     1.6490                 1.2766                 1.4461
 Frc consts  --     1.8694                 1.4796                 1.6881
 IR Inten    --     7.6327                36.6333                 4.5539
 Raman Activ --     7.2589                 2.3699                 3.4623

                   100                    101                    102
                     A                      A                      A
 Frequencies --  1413.0550              1437.8818              1451.0991
 Red. masses --     1.6528                 1.5259                 1.3589
 Frc consts  --     1.9444                 1.8587                 1.6859
 IR Inten    --    38.8615                 7.4317                19.1773
 Raman Activ --     3.7763                 0.2848                 1.3304

                   103                    104                    105
                     A                      A                      A
 Frequencies --  1459.0377              1485.4909              1491.2186
 Red. masses --     1.3437                 1.0850                 1.0921
 Frc consts  --     1.6853                 1.4107                 1.4308
 IR Inten    --     9.9860                 1.7816                 3.4097
 Raman Activ --     3.3245                 5.4975                 4.0532

                   106                    107                    108
                     A                      A                      A
 Frequencies --  1509.3581              1547.0581              3253.7240
 Red. masses --     1.2994                 1.2413                 1.0775
 Frc consts  --     1.7442                 1.7504                 6.7211
 IR Inten    --    76.0515                57.8485               189.2641
 Raman Activ --     1.8720                 1.4611               114.7240

                   109                    110                    111
                     A                      A                      A
 Frequencies --  3260.5210              3268.3106              3269.6084
 Red. masses --     1.0710                 1.0581                 1.0808
 Frc consts  --     6.7082                 6.6593                 6.8074
 IR Inten    --   586.8283                31.4920                78.9805
 Raman Activ --    55.9930                87.4228                73.2561

                   112                    113                    114
                     A                      A                      A
 Frequencies --  3277.3387              3281.0239              3284.9351
 Red. masses --     1.0630                 1.0841                 1.0819
 Frc consts  --     6.7274                 6.8763                 6.8782
 IR Inten    --    44.4207                15.7877                 2.1721
 Raman Activ --   169.7428                84.8606               111.0791

                   115                    116                    117
                     A                      A                      A
 Frequencies --  3288.1901              3298.6450              3304.3101
 Red. masses --     1.0818                 1.0864                 1.0862
 Frc consts  --     6.8917                 6.9651                 6.9875
 IR Inten    --    89.6552                39.2015                 8.6341
 Raman Activ --    68.8527                 5.8008                21.2587

                   118                    119                    120
                     A                      A                      A
 Frequencies --  3311.6318              3313.6853              3317.6746
 Red. masses --     1.0872                 1.0856                 1.0949
 Frc consts  --     7.0249                 7.0234                 7.1002
 IR Inten    --     4.5643                91.8033                32.9706
 Raman Activ --    92.8049                 5.1444                65.4072

                   121                    122                    123
                     A                      A                      A
 Frequencies --  3329.4868              3331.1402              3344.5057
 Red. masses --     1.1067                 1.0972                 1.0668
 Frc consts  --     7.2284                 7.1731                 7.0304
 IR Inten    --    38.0975                59.7086               594.9757
 Raman Activ --    62.7414                 5.8855               148.9603

                   124                    125                    126
                     A                      A                      A
 Frequencies --  3385.2008              3390.4267              3392.9317
 Red. masses --     1.0690                 1.0666                 1.0646
 Frc consts  --     7.2180                 7.2236                 7.2211
 IR Inten    --    39.7003                34.8550                24.2599
 Raman Activ --   149.5320               141.7229               115.3327

                   127                    128                    129
                     A                      A                      A
 Frequencies --  3395.5774              3920.1530              3920.4231
 Red. masses --     1.0679                 1.0675                 1.0677
 Frc consts  --     7.2543                 9.6658                 9.6690
 IR Inten    --    92.7643                85.5909                61.5686
 Raman Activ --   157.8889                76.7555               135.4893

 - Thermochemistry -
 -------------------
 Temperature   298.150 Kelvin.  Pressure   1.00000 Atm.
 Atom     1 has atomic number  8 and mass  15.99491

 Molecular mass:   342.11621 amu.
 Principal axes and moments of inertia in atomic units:
                           1         2         3
     Eigenvalues --  4525.31238********************
           X            0.99997   0.00799  -0.00083
           Y           -0.00799   0.99996   0.00327
           Z            0.00086  -0.00326   0.99999
 This molecule is an asymmetric top.
 Rotational symmetry number  1.
 Warning -- assumption of classical behavior for rotation
           may cause significant error
 Rotational temperatures (Kelvin)      0.01914     0.00717     0.00535
 Rotational constants (GHZ):           0.39881     0.14931     0.11139
    8 imaginary frequencies ignored.
 Zero-point vibrational energy     978167.4 (Joules/Mol)
                                  233.78761 (Kcal/Mol)
 Warning -- explicit consideration of  31 degrees of freedom as
           vibrations may cause significant error
 Vibrational temperatures:     76.37   108.77   123.84   157.54   205.28
          (Kelvin)            256.27   271.68   311.56   335.78   373.04
                              392.47   408.97   434.92   437.74   452.64
                              465.17   502.20   518.72   560.55   595.68
                              602.09   620.62   629.52   687.65   694.62
                              734.23   781.76   824.06   849.09   857.86
                              874.67   927.40   946.92   968.06   977.93
                              992.53  1105.51  1156.53  1225.62  1242.78
                             1261.97  1351.72  1384.08  1414.65  1431.69
                             1454.00  1466.71  1476.01  1486.66  1501.42
                             1517.87  1538.40  1545.81  1553.98  1570.69
                             1581.11  1607.06  1608.13  1617.49  1621.44
                             1634.57  1655.41  1661.70  1674.85  1678.83
                             1696.33  1707.91  1718.67  1757.46  1783.84
                             1794.80  1804.58  1819.20  1832.84  1844.27
                             1850.98  1852.99  1863.87  1878.16  1890.86
                             1907.72  1911.34  1923.10  1936.35  1937.42
                             1944.72  1981.87  1990.43  1995.77  2017.95
                             2025.17  2033.07  2068.79  2087.81  2099.23
                             2137.29  2145.53  2171.63  2225.87  4681.38
                             4691.16  4702.36  4704.23  4715.35  4720.66
                             4726.28  4730.97  4746.01  4754.16  4764.69
                             4767.65  4773.39  4790.38  4792.76  4811.99
                             4870.54  4878.06  4881.67  4885.47  5640.22
                             5640.61

 Zero-point correction=                           0.372564 (Hartree/Particle)
 Thermal correction to Energy=                    0.390091
 Thermal correction to Enthalpy=                  0.391035
 Thermal correction to Gibbs Free Energy=         0.328268
 Sum of electronic and zero-point Energies=          -1297.560630
 Sum of electronic and thermal Energies=             -1297.543104
 Sum of electronic and thermal Enthalpies=           -1297.542159
 Sum of electronic and thermal Free Energies=        -1297.604927

                     E (Thermal)             CV                S
                      KCal/Mol        Cal/Mol-Kelvin    Cal/Mol-Kelvin
 Total                  244.786             73.729            132.105
 Electronic               0.000              0.000              0.000
 Translational            0.889              2.981             43.384
 Rotational               0.889              2.981             35.137
 Vibrational            243.008             67.767             53.583
 Vibration     1          0.596              1.976              4.699
 Vibration     2          0.599              1.965              4.002
 Vibration     3          0.601              1.959              3.747
 Vibration     4          0.606              1.942              3.278
 Vibration     5          0.616              1.911              2.768
 Vibration     6          0.629              1.869              2.348
 Vibration     7          0.633              1.855              2.239
 Vibration     8          0.645              1.816              1.988
 Vibration     9          0.654              1.790              1.853
 Vibration    10          0.668              1.747              1.667
 Vibration    11          0.676              1.724              1.579
 Vibration    12          0.683              1.703              1.508
 Vibration    13          0.694              1.669              1.404
 Vibration    14          0.695              1.666              1.393
 Vibration    15          0.702              1.646              1.338
 Vibration    16          0.708              1.629              1.293
 Vibration    17          0.726              1.577              1.170
 Vibration    18          0.735              1.554              1.120
 Vibration    19          0.758              1.492              1.002
 Vibration    20          0.778              1.440              0.913
 Vibration    21          0.781              1.430              0.897
 Vibration    22          0.792              1.402              0.854
 Vibration    23          0.798              1.388              0.834
 Vibration    24          0.834              1.299              0.716
 Vibration    25          0.839              1.288              0.703
 Vibration    26          0.865              1.227              0.633
 Vibration    27          0.898              1.154              0.558
 Vibration    28          0.929              1.090              0.499
 Vibration    29          0.947              1.053              0.467
 Vibration    30          0.954              1.040              0.456
 Vibration    31          0.967              1.015              0.436

 Normal termination of Gaussian 09 at Tue Mar  1 03:38:11 2016.
