 Gaussian 09, Revision B.01,
 Gaussian 09:  EM64L-G09RevB.01 12-Aug-2010

 ------------------------------------------------
 # freq=raman b3lyp/6-31+g(d,p) geom=connectivity
 ------------------------------------------------

 -------------
 550 10000.com
 -------------
 Symbolic Z-matrix:
 Charge =  0 Multiplicity = 1

                         Standard orientation:
 ---------------------------------------------------------------------
 Center     Atomic      Atomic             Coordinates (Angstroms)
 Number     Number       Type             X           Y           Z
 ---------------------------------------------------------------------
      1          8           0       -5.016022    0.246938   -0.438462
      2          6           0       -3.852026   -0.223111    0.256891
      3          6           0       -3.117858   -1.353956   -0.444424
      4          8           0       -4.060883   -2.429722   -0.558310
      5          1           0       -4.983662   -2.077919   -0.401252
      6          6           0       -1.677896   -1.762373   -0.181790
      7          8           0       -0.958376   -2.680948   -1.017823
      8          1           0       -1.555479   -3.470678   -1.162648
      9          6           0       -3.254807    2.277008    0.751618
     10          8           0       -2.707732    3.573827    0.477185
     11          1           0       -3.210597    4.414226    0.682825
     12          6           0       -2.866498    0.929533    0.163805
     13          8           0       -1.662904    0.479719    0.802294
     14          6           0       -0.983275   -0.413340   -0.093394
     15          8           0        0.206512   -0.730263    0.643351
     16          6           0        1.312767   -0.214193   -0.111024
     17          6           0        1.547469    1.273215    0.094412
     18          8           0        0.608199    2.077371   -0.632834
     19          1           0       -0.066867    2.362502    0.047693
     20          6           0        2.852602    1.522453   -0.643176
     21          8           0        3.058888    2.921088   -0.395457
     22          1           0        2.324785    3.183437   -1.020909
     23          6           0        2.305210   -2.499364    0.342053
     24          8           0        3.292824   -3.348431    0.943553
     25          1           0        3.407380   -3.191512    1.924192
     26          6           0        2.456693   -0.997033    0.512963
     27          8           0        3.766395   -0.589794    0.091428
     28          6           0        4.052195    0.810359   -0.039715
     29          8           0        5.359985    0.831483   -0.628470
     30          1           0       -5.792476    0.112121    0.109757
     31          1           0       -3.143990    2.153952    1.808725
     32          1           0       -4.299659    2.373446    0.542132
     33          1           0       -2.648109    1.082780   -0.872400
     34          1           0       -4.071441   -0.466698    1.275430
     35          1           0       -3.052555   -0.987595   -1.447627
     36          1           0       -1.660364   -2.183505    0.801694
     37          1           0       -0.776330    0.020798   -1.049218
     38          1           0        5.992254    0.446132   -0.017454
     39          1           0        2.294641   -2.707051   -0.707544
     40          1           0        1.352123   -2.776858    0.741457
     41          1           0        2.408137   -0.807406    1.564906
     42          1           0        1.211347   -0.449273   -1.149942
     43          1           0        1.607960    1.542639    1.128168
     44          1           0        2.758354    1.321776   -1.689954
     45          1           0        4.161999    1.199339    0.951011
 ---------------------------------------------------------------------

 SCF Done:  E(RB3LYP) =  -1297.87817706     A.U. after   14 cycles

 The electronic state is 1-A.
 Alpha  occ. eigenvalues --  -19.21054 -19.19379 -19.19157 -19.18523 -19.18002
 Alpha  occ. eigenvalues --  -19.17930 -19.17711 -19.16146 -19.15563 -19.15492
 Alpha  occ. eigenvalues --  -19.15182 -10.30896 -10.29308 -10.28663 -10.26988
 Alpha  occ. eigenvalues --  -10.26513 -10.26459 -10.25629 -10.25454 -10.25031
 Alpha  occ. eigenvalues --  -10.24779 -10.24180 -10.22229  -1.10511  -1.08320
 Alpha  occ. eigenvalues --   -1.06908  -1.05479  -1.05051  -1.04206  -1.03398
 Alpha  occ. eigenvalues --   -1.02910  -1.01691  -1.00865  -0.99605  -0.82585
 Alpha  occ. eigenvalues --   -0.82261  -0.79134  -0.77541  -0.72863  -0.69566
 Alpha  occ. eigenvalues --   -0.67625  -0.65011  -0.63724  -0.63072  -0.61968
 Alpha  occ. eigenvalues --   -0.60744  -0.57838  -0.55967  -0.55613  -0.54879
 Alpha  occ. eigenvalues --   -0.53741  -0.53178  -0.53143  -0.52122  -0.51013
 Alpha  occ. eigenvalues --   -0.50530  -0.50021  -0.48151  -0.48044  -0.46762
 Alpha  occ. eigenvalues --   -0.46008  -0.45417  -0.44964  -0.44114  -0.43703
 Alpha  occ. eigenvalues --   -0.42805  -0.42611  -0.41669  -0.40123  -0.39293
 Alpha  occ. eigenvalues --   -0.38696  -0.38438  -0.37727  -0.37402  -0.37211
 Alpha  occ. eigenvalues --   -0.36583  -0.34827  -0.34484  -0.33901  -0.32974
 Alpha  occ. eigenvalues --   -0.32477  -0.31622  -0.31164  -0.29930  -0.29760
 Alpha  occ. eigenvalues --   -0.29510  -0.29311  -0.28541  -0.27363  -0.26237
 Alpha  occ. eigenvalues --   -0.25616
 Alpha virt. eigenvalues --   -0.04076  -0.02556  -0.00834  -0.00314   0.00680
 Alpha virt. eigenvalues --    0.00926   0.01567   0.01827   0.02602   0.02785
 Alpha virt. eigenvalues --    0.03422   0.04126   0.04480   0.05626   0.05713

 Mulliken atomic charges:
              1
     1  O   -0.540460
     2  C   -0.380840
     3  C    0.265043
     4  O   -0.532197
     5  H    0.344599
     6  C    0.270420
     7  O   -0.528921
     8  H    0.383449
     9  C   -0.299388
    10  O   -0.601018
    11  H    0.381047
    12  C    0.543108
    13  O   -0.392280
    14  C   -0.106547
    15  O   -0.287384
    16  C   -0.095376
    17  C   -0.067731
    18  O   -0.536112
    19  H    0.390998
    20  C   -0.072461
    21  O   -0.440609
    22  H    0.363531
    23  C    0.101530
    24  O   -0.513091
    25  H    0.332400
    26  C   -0.157859
    27  O   -0.342784
    28  C    0.297999
    29  O   -0.484521
    30  H    0.362664
    31  H    0.140025
    32  H    0.134869
    33  H    0.137210
    34  H    0.159319
    35  H    0.134732
    36  H    0.144461
    37  H    0.155226
    38  H    0.355407
    39  H    0.146105
    40  H    0.153513
    41  H    0.115744
    42  H    0.140190
    43  H    0.163829
    44  H    0.154742
    45  H    0.107419
 Sum of Mulliken atomic charges =   0.00000

 Dipole moment (field-independent basis, Debye):
    X=             -8.7107    Y=              1.3258    Z=              3.5369  Tot=              9.4944
 Quadrupole moment (field-independent basis, Debye-Ang):
   XX=           -124.8057   YY=           -147.4657   ZZ=           -134.8849
   XY=             -7.0466   XZ=              1.0522   YZ=              1.2940

  Exact polarizability: 218.344  -2.781 195.183  -0.918   0.484 144.313
 Approx polarizability: 259.018  -6.161 252.399  -1.691  -0.593 234.882

 ******    8 imaginary frequencies (negative Signs) ******

                     1                      2                      3
                     A                      A                      A
 Frequencies --  -369.6749              -368.5473              -225.8463
 Red. masses --     1.0890                 1.6409                 1.2644
 Frc consts  --     0.0877                 0.1313                 0.0380
 IR Inten    --   138.6008                16.6355               111.1621
 Raman Activ --     1.4374                 0.0723                 0.8481

                     4                      5                      6
                     A                      A                      A
 Frequencies --  -204.3868              -105.3398               -68.4010
 Red. masses --     1.8397                 5.7860                 6.4673
 Frc consts  --     0.0453                 0.0378                 0.0178
 IR Inten    --     6.3916                 0.1725                 1.7794
 Raman Activ --     0.0960                 0.0556                 0.0602

                     7                      8                      9
                     A                      A                      A
 Frequencies --   -49.6705               -15.8526                28.2770
 Red. masses --     6.1705                 6.3428                 6.7585
 Frc consts  --     0.0090                 0.0009                 0.0032
 IR Inten    --     1.0399                 0.5161                 3.4539
 Raman Activ --     0.0750                 0.0506                 0.0948

                    10                     11                     12
                     A                      A                      A
 Frequencies --    61.9989                79.9327               100.0354
 Red. masses --     5.6730                 6.3277                 6.1768
 Frc consts  --     0.0128                 0.0238                 0.0364
 IR Inten    --     0.5415                 1.6483                 0.0745
 Raman Activ --     0.2039                 0.1912                 0.1613

                    13                     14                     15
                     A                      A                      A
 Frequencies --   115.5314               135.5587               176.9069
 Red. masses --     6.2304                 6.8367                 6.2137
 Frc consts  --     0.0490                 0.0740                 0.1146
 IR Inten    --     4.6537                 0.8504                 3.1528
 Raman Activ --     0.3355                 0.4004                 0.1965

                    16                     17                     18
                     A                      A                      A
 Frequencies --   207.2196               214.8007               248.4742
 Red. masses --     4.8161                 6.3849                 5.5802
 Frc consts  --     0.1218                 0.1736                 0.2030
 IR Inten    --     2.9427                 1.0444                 7.2415
 Raman Activ --     0.2510                 1.4723                 1.4760

                    19                     20                     21
                     A                      A                      A
 Frequencies --   256.7329               273.2172               284.6333
 Red. masses --     4.9887                 6.0502                 4.9351
 Frc consts  --     0.1937                 0.2661                 0.2356
 IR Inten    --     3.8889                 7.2516                 3.3014
 Raman Activ --     0.7473                 2.0415                 0.6930

                    22                     23                     24
                     A                      A                      A
 Frequencies --   314.8024               329.2994               334.8249
 Red. masses --     4.9158                 4.8839                 6.1048
 Frc consts  --     0.2870                 0.3120                 0.4032
 IR Inten    --     1.8190                 4.1368                 5.6096
 Raman Activ --     1.3871                 3.6133                 1.6912

                    25                     26                     27
                     A                      A                      A
 Frequencies --   340.6817               360.1855               362.9037
 Red. masses --     3.8149                 5.0957                 4.8750
 Frc consts  --     0.2609                 0.3895                 0.3783
 IR Inten    --     4.5229                 8.6064                 2.3184
 Raman Activ --     3.2483                 0.2017                 1.0086

                    28                     29                     30
                     A                      A                      A
 Frequencies --   401.8700               414.1870               434.5982
 Red. masses --     6.1684                 3.6726                 4.1959
 Frc consts  --     0.5869                 0.3712                 0.4669
 IR Inten    --     4.9691                12.1700                 9.9159
 Raman Activ --     5.1202                 5.0725                 1.6610

                    31                     32                     33
                     A                      A                      A
 Frequencies --   452.3651               469.5523               486.1952
 Red. masses --     3.2115                 2.4481                 4.1373
 Frc consts  --     0.3872                 0.3180                 0.5762
 IR Inten    --    36.8348                72.1213                11.6610
 Raman Activ --     1.3655                 1.2315                 0.8059

                    34                     35                     36
                     A                      A                      A
 Frequencies --   497.2601               528.9488               544.5531
 Red. masses --     2.0321                 3.8702                 4.1649
 Frc consts  --     0.2961                 0.6380                 0.7277
 IR Inten    --    30.6872                22.3106                16.3692
 Raman Activ --     1.8976                 0.8231                 8.1555

                    37                     38                     39
                     A                      A                      A
 Frequencies --   571.2720               578.9136               596.0797
 Red. masses --     5.1565                 3.2957                 1.6417
 Frc consts  --     0.9915                 0.6508                 0.3437
 IR Inten    --     8.0596                11.0054                21.3900
 Raman Activ --     1.0792                 1.3042                 1.6015

                    40                     41                     42
                     A                      A                      A
 Frequencies --   606.6798               618.7386               647.1071
 Red. masses --     2.9033                 1.5871                 1.0952
 Frc consts  --     0.6296                 0.3580                 0.2702
 IR Inten    --    26.4673                64.2529               125.9570
 Raman Activ --     0.6012                 1.2279                 1.3322

                    43                     44                     45
                     A                      A                      A
 Frequencies --   666.6245               683.0220               690.4168
 Red. masses --     3.1308                 3.8483                 1.1266
 Frc consts  --     0.8197                 1.0578                 0.3164
 IR Inten    --    23.7571                 7.0073               130.3758
 Raman Activ --     0.8198                 0.1429                 1.9631

                    46                     47                     48
                     A                      A                      A
 Frequencies --   710.1867               745.8647               837.8957
 Red. masses --     1.2969                 1.1494                 2.5632
 Frc consts  --     0.3854                 0.3767                 1.0602
 IR Inten    --   188.7061                91.1514                 5.2856
 Raman Activ --     2.3727                 1.6815                 2.2823

                    49                     50                     51
                     A                      A                      A
 Frequencies --   844.7582               963.4205               967.0666
 Red. masses --     2.6754                 5.4979                 5.6197
 Frc consts  --     1.1249                 3.0066                 3.0965
 IR Inten    --     2.7168                91.1461               181.6918
 Raman Activ --     2.8495                 0.3223                 3.3714

                    52                     53                     54
                     A                      A                      A
 Frequencies --   976.7581               991.0257               993.9811
 Red. masses --     4.3909                 4.9228                 4.3774
 Frc consts  --     2.4682                 2.8486                 2.5481
 IR Inten    --    21.8504                65.8550                59.5041
 Raman Activ --     3.0477                 2.7600                 1.5395

                    55                     56                     57
                     A                      A                      A
 Frequencies --  1018.5694              1019.8648              1033.4684
 Red. masses --     3.1735                 4.8057                 3.2318
 Frc consts  --     1.9398                 2.9450                 2.0337
 IR Inten    --   210.3400               205.9064               204.8600
 Raman Activ --     2.4079                 5.7570                 0.7340

                    58                     59                     60
                     A                      A                      A
 Frequencies --  1046.3636              1051.2238              1058.7278
 Red. masses --     3.3974                 2.5650                 4.4769
 Frc consts  --     2.1916                 1.6701                 2.9567
 IR Inten    --   104.6760                23.5913                70.5498
 Raman Activ --     1.5057                 8.8802                 3.0431

                    61                     62                     63
                     A                      A                      A
 Frequencies --  1061.5231              1076.1341              1084.5186
 Red. masses --     3.6912                 4.1466                 4.3959
 Frc consts  --     2.4506                 2.8293                 3.0463
 IR Inten    --    95.7024               143.8914                51.0408
 Raman Activ --     4.1728                 3.2374                 7.5218

                    64                     65                     66
                     A                      A                      A
 Frequencies --  1090.1907              1095.7013              1099.8629
 Red. masses --     2.7542                 2.7336                 2.5536
 Frc consts  --     1.9286                 1.9336                 1.8201
 IR Inten    --     3.0806                49.8117                51.8537
 Raman Activ --     6.7008                 5.3290                10.2656

                    67                     68                     69
                     A                      A                      A
 Frequencies --  1110.4964              1123.1950              1127.4052
 Red. masses --     3.6366                 2.4460                 1.7960
 Frc consts  --     2.6423                 1.8181                 1.3449
 IR Inten    --    66.4439                12.2085                33.1549
 Raman Activ --     1.2996                 8.1074                 8.2057

                    70                     71                     72
                     A                      A                      A
 Frequencies --  1135.0797              1151.9581              1160.5557
 Red. masses --     3.4047                 2.3151                 1.8386
 Frc consts  --     2.5845                 1.8101                 1.4591
 IR Inten    --   114.3203                37.4799                 9.6513
 Raman Activ --     5.5158                 1.1945                 2.8513

                    73                     74                     75
                     A                      A                      A
 Frequencies --  1170.4088              1176.4992              1179.7548
 Red. masses --     1.7751                 2.1481                 2.2369
 Frc consts  --     1.4327                 1.7518                 1.8344
 IR Inten    --     5.6213                23.2789                52.6765
 Raman Activ --     1.3969                 2.3402                 4.3374

                    76                     77                     78
                     A                      A                      A
 Frequencies --  1191.3063              1205.0188              1233.2244
 Red. masses --     1.7465                 1.5984                 1.3993
 Frc consts  --     1.4604                 1.3675                 1.2538
 IR Inten    --    16.7362                 8.6770                25.9010
 Raman Activ --     6.2053                 2.0147                 2.6553

                    79                     80                     81
                     A                      A                      A
 Frequencies --  1237.4937              1243.7172              1250.0035
 Red. masses --     1.3734                 1.4204                 1.2451
 Frc consts  --     1.2392                 1.2945                 1.1462
 IR Inten    --    22.5073                 6.7081                 6.4937
 Raman Activ --     4.9793                 2.6027                 1.6172

                    82                     83                     84
                     A                      A                      A
 Frequencies --  1274.5437              1278.5044              1284.5427
 Red. masses --     1.3240                 1.2834                 1.2975
 Frc consts  --     1.2672                 1.2360                 1.2614
 IR Inten    --    22.0952                14.0606                 2.8143
 Raman Activ --     1.2999                 1.2795                 2.6076

                    85                     86                     87
                     A                      A                      A
 Frequencies --  1292.5151              1312.2876              1319.7369
 Red. masses --     1.2456                 1.3898                 1.3024
 Frc consts  --     1.2260                 1.4101                 1.3365
 IR Inten    --     0.5135                10.2263                24.2556
 Raman Activ --     1.4317                 6.3385                 5.7784

                    88                     89                     90
                     A                      A                      A
 Frequencies --  1320.9073              1329.9483              1338.1752
 Red. masses --     1.3413                 1.2780                 1.2507
 Frc consts  --     1.3788                 1.3318                 1.3196
 IR Inten    --    24.8537                16.4116                 3.4260
 Raman Activ --     9.9372                 3.2499                 0.7541

                    91                     92                     93
                     A                      A                      A
 Frequencies --  1342.8058              1352.4805              1358.3416
 Red. masses --     1.5028                 1.3467                 1.2463
 Frc consts  --     1.5965                 1.4514                 1.3548
 IR Inten    --     5.4070                57.0703                10.6981
 Raman Activ --     3.3536                 2.4173                 2.6364

                    94                     95                     96
                     A                      A                      A
 Frequencies --  1375.5173              1377.9387              1385.5796
 Red. masses --     1.3498                 1.2836                 1.4275
 Frc consts  --     1.5047                 1.4359                 1.6147
 IR Inten    --     7.0458                10.4632                23.1826
 Raman Activ --     6.2458                14.3205                 2.4882

                    97                     98                     99
                     A                      A                      A
 Frequencies --  1394.3373              1400.1622              1401.5944
 Red. masses --     1.2257                 1.2007                 1.1700
 Frc consts  --     1.4040                 1.3869                 1.3541
 IR Inten    --     3.1570                46.7069                65.5104
 Raman Activ --     2.1644                 3.6069                 1.4326

                   100                    101                    102
                     A                      A                      A
 Frequencies --  1427.6220              1428.7791              1430.4022
 Red. masses --     1.4513                 1.2958                 1.4365
 Frc consts  --     1.7427                 1.5586                 1.7317
 IR Inten    --    11.3607                 5.7048                 6.1842
 Raman Activ --     4.0600                 0.4404                 6.9551

                   103                    104                    105
                     A                      A                      A
 Frequencies --  1441.4978              1456.4591              1459.3262
 Red. masses --     1.2969                 1.0980                 1.4048
 Frc consts  --     1.5878                 1.3723                 1.7626
 IR Inten    --    21.1245                 9.1563                70.2363
 Raman Activ --     2.6532                 4.4245                 3.1544

                   106                    107                    108
                     A                      A                      A
 Frequencies --  1461.7085              1545.5830              3253.7565
 Red. masses --     1.1293                 1.2600                 1.0797
 Frc consts  --     1.4216                 1.7734                 6.7348
 IR Inten    --     4.2246                70.5249                19.0310
 Raman Activ --     5.7857                 1.5287                57.7751

                   109                    110                    111
                     A                      A                      A
 Frequencies --  3263.5413              3269.4900              3276.6535
 Red. masses --     1.0592                 1.0821                 1.0842
 Frc consts  --     6.6470                 6.8149                 6.8585
 IR Inten    --    31.5309                24.5591                46.0883
 Raman Activ --   126.2578                75.0411               103.1176

                   112                    113                    114
                     A                      A                      A
 Frequencies --  3287.6172              3288.9205              3291.9574
 Red. masses --     1.0588                 1.0827                 1.0846
 Frc consts  --     6.7428                 6.9000                 6.9252
 IR Inten    --    24.1534                 5.7839                24.3812
 Raman Activ --    90.8571                73.4346                19.1815

                   115                    116                    117
                     A                      A                      A
 Frequencies --  3301.3926              3311.8713              3314.3652
 Red. masses --     1.0863                 1.0866                 1.0917
 Frc consts  --     6.9759                 7.0222                 7.0655
 IR Inten    --     2.1399                13.3731                13.3376
 Raman Activ --     7.0215                59.6162                56.1709

                   118                    119                    120
                     A                      A                      A
 Frequencies --  3318.1920              3322.3740              3328.8643
 Red. masses --     1.0980                 1.0878                 1.0876
 Frc consts  --     7.1227                 7.0747                 7.1006
 IR Inten    --    31.2532                22.9620                38.2478
 Raman Activ --    65.1205                28.6310                 6.5790

                   121                    122                    123
                     A                      A                      A
 Frequencies --  3347.7418              3381.7044              3382.5701
 Red. masses --     1.1053                 1.0699                 1.0663
 Frc consts  --     7.2988                 7.2087                 7.1885
 IR Inten    --    24.8539               105.9657                34.3755
 Raman Activ --    47.8681               222.3366               106.0965

                   124                    125                    126
                     A                      A                      A
 Frequencies --  3390.1526              3394.6248              3395.9812
 Red. masses --     1.0691                 1.0664                 1.0640
 Frc consts  --     7.2397                 7.2402                 7.2296
 IR Inten    --    16.7945                57.5434               101.3380
 Raman Activ --    72.9341               123.4136               102.3550

                   127                    128                    129
                     A                      A                      A
 Frequencies --  3398.3210              3915.6090              3919.5743
 Red. masses --     1.0656                 1.0678                 1.0670
 Frc consts  --     7.2509                 9.6461                 9.6584
 IR Inten    --    39.9300                69.4125                79.3748
 Raman Activ --    44.2285               113.8582               116.4336

 - Thermochemistry -
 -------------------
 Temperature   298.150 Kelvin.  Pressure   1.00000 Atm.
 Atom     1 has atomic number  8 and mass  15.99491

 Molecular mass:   342.11621 amu.
 Principal axes and moments of inertia in atomic units:
                           1         2         3
     Eigenvalues --  4745.52515********************
           X            0.99998  -0.00653   0.00028
           Y            0.00653   0.99998   0.00152
           Z           -0.00029  -0.00152   1.00000
 This molecule is an asymmetric top.
 Rotational symmetry number  1.
 Warning -- assumption of classical behavior for rotation
           may cause significant error
 Rotational temperatures (Kelvin)      0.01825     0.00744     0.00558
 Rotational constants (GHZ):           0.38030     0.15508     0.11634
    8 imaginary frequencies ignored.
 Zero-point vibrational energy     973306.8 (Joules/Mol)
                                  232.62591 (Kcal/Mol)
 Warning -- explicit consideration of  33 degrees of freedom as
           vibrations may cause significant error
 Vibrational temperatures:     40.68    89.20   115.01   143.93   166.22
          (Kelvin)            195.04   254.53   298.14   309.05   357.50
                              369.38   393.10   409.52   452.93   473.79
                              481.74   490.16   518.23   522.14   578.20
                              595.92   625.29   650.85   675.58   699.53
                              715.45   761.04   783.49   821.93   832.93
                              857.62   872.88   890.23   931.04   959.12
                              982.72   993.35  1021.80  1073.13  1205.54
                             1215.42  1386.15  1391.39  1405.34  1425.86
                             1430.12  1465.49  1467.36  1486.93  1505.48
                             1512.47  1523.27  1527.29  1548.31  1560.38
                             1568.54  1576.47  1582.46  1597.75  1616.03
                             1622.08  1633.12  1657.41  1669.78  1683.96
                             1692.72  1697.40  1714.02  1733.75  1774.33
                             1780.48  1789.43  1798.47  1833.78  1839.48
                             1848.17  1859.64  1888.09  1898.80  1900.49
                             1913.50  1925.33  1932.00  1945.92  1954.35
                             1979.06  1982.54  1993.54  2006.14  2014.52
                             2016.58  2054.03  2055.69  2058.03  2073.99
                             2095.52  2099.64  2103.07  2223.75  4681.42
                             4695.50  4704.06  4714.37  4730.14  4732.02
                             4736.39  4749.96  4765.04  4768.63  4774.13
                             4780.15  4789.49  4816.65  4865.51  4866.76
                             4877.67  4884.10  4886.05  4889.42  5633.68
                             5639.39

 Zero-point correction=                           0.370713 (Hartree/Particle)
 Thermal correction to Energy=                    0.388848
 Thermal correction to Enthalpy=                  0.389792
 Thermal correction to Gibbs Free Energy=         0.325006
 Sum of electronic and zero-point Energies=          -1297.507464
 Sum of electronic and thermal Energies=             -1297.489329
 Sum of electronic and thermal Enthalpies=           -1297.488385
 Sum of electronic and thermal Free Energies=        -1297.553172

                     E (Thermal)             CV                S
                      KCal/Mol        Cal/Mol-Kelvin    Cal/Mol-Kelvin
 Total                  244.006             75.189            136.356
 Electronic               0.000              0.000              0.000
 Translational            0.889              2.981             43.384
 Rotational               0.889              2.981             35.103
 Vibrational            242.229             69.228             57.868
 Vibration     1          0.593              1.984              5.947
 Vibration     2          0.597              1.972              4.393
 Vibration     3          0.600              1.963              3.893
 Vibration     4          0.604              1.949              3.454
 Vibration     5          0.608              1.937              3.174
 Vibration     6          0.613              1.918              2.866
 Vibration     7          0.628              1.871              2.361
 Vibration     8          0.641              1.830              2.068
 Vibration     9          0.645              1.818              2.002
 Vibration    10          0.662              1.765              1.741
 Vibration    11          0.666              1.751              1.684
 Vibration    12          0.676              1.723              1.576
 Vibration    13          0.683              1.702              1.506
 Vibration    14          0.702              1.645              1.337
 Vibration    15          0.712              1.617              1.264
 Vibration    16          0.716              1.606              1.237
 Vibration    17          0.720              1.594              1.209
 Vibration    18          0.735              1.554              1.121
 Vibration    19          0.737              1.549              1.110
 Vibration    20          0.767              1.466              0.956
 Vibration    21          0.778              1.439              0.912
 Vibration    22          0.795              1.395              0.844
 Vibration    23          0.811              1.356              0.789
 Vibration    24          0.827              1.318              0.739
 Vibration    25          0.842              1.281              0.694
 Vibration    26          0.853              1.256              0.665
 Vibration    27          0.884              1.186              0.590
 Vibration    28          0.900              1.152              0.556
 Vibration    29          0.927              1.093              0.502
 Vibration    30          0.935              1.077              0.487
 Vibration    31          0.954              1.040              0.456
 Vibration    32          0.965              1.018              0.438
 Vibration    33          0.979              0.992              0.419

 Normal termination of Gaussian 09 at Thu Jan 21 18:24:20 2016.
