 Gaussian 09, Revision B.01,
 Gaussian 09:  EM64L-G09RevB.01 12-Aug-2010

 ------------------------------------------------
 # freq=raman b3lyp/6-31+g(d,p) geom=connectivity
 ------------------------------------------------

 ------------
 290 8000.com
 ------------
 Symbolic Z-matrix:
 Charge =  0 Multiplicity = 1

                         Standard orientation:
 ---------------------------------------------------------------------
 Center     Atomic      Atomic             Coordinates (Angstroms)
 Number     Number       Type             X           Y           Z
 ---------------------------------------------------------------------
      1          8           0       -4.985463   -0.470580    0.377476
      2          6           0       -3.705784   -0.134670   -0.177325
      3          6           0       -3.245072    1.234226    0.294175
      4          8           0       -4.176645    2.194902   -0.223746
      5          1           0       -5.140633    1.936124   -0.156208
      6          6           0       -1.841521    1.632759   -0.134292
      7          8           0       -1.360725    2.899183    0.337249
      8          1           0       -0.430215    2.963093   -0.023387
      9          6           0       -2.947992   -2.635595    0.071757
     10          8           0       -4.192134   -3.253692    0.430791
     11          1           0       -4.089170   -4.231237    0.250109
     12          6           0       -2.641311   -1.152519    0.200862
     13          8           0       -1.415110   -0.707857   -0.397379
     14          6           0       -0.863633    0.502243    0.140501
     15          8           0        0.286817    0.676498   -0.698753
     16          6           0        1.473840    0.261661   -0.007756
     17          6           0        1.985801   -1.075838   -0.517022
     18          8           0        0.921039   -2.020628   -0.341359
     19          1           0        0.166411   -1.678263   -0.901031
     20          6           0        3.267159   -1.609949    0.102028
     21          8           0        3.773637   -2.764799   -0.581599
     22          1           0        4.556451   -3.196324   -0.132167
     23          6           0        2.443505    2.692213    0.247179
     24          8           0        1.380507    3.357562   -0.449777
     25          1           0        1.315836    4.308213   -0.147768
     26          6           0        2.636454    1.233105   -0.133885
     27          8           0        3.734901    0.725506    0.636203
     28          6           0        4.285668   -0.481893    0.088966
     29          8           0        5.465285   -0.835102    0.824742
     30          1           0       -5.598949   -0.672999   -0.332638
     31          1           0       -2.193560   -3.142570    0.636300
     32          1           0       -2.782503   -2.882153   -0.956213
     33          1           0       -2.497092   -1.009590    1.251420
     34          1           0       -3.793206   -0.115012   -1.243566
     35          1           0       -3.291707    1.257427    1.362907
     36          1           0       -1.884176    1.724718   -1.199480
     37          1           0       -0.608677    0.413757    1.175908
     38          1           0        6.166694   -1.068259    0.212156
     39          1           0        3.355684    3.215864    0.050660
     40          1           0        2.242720    2.743208    1.296934
     41          1           0        2.938694    1.219948   -1.160227
     42          1           0        1.236090    0.156809    1.030213
     43          1           0        2.157706   -0.973812   -1.568183
     44          1           0        3.068077   -1.877352    1.118769
     45          1           0        4.565983   -0.293980   -0.926422
 ---------------------------------------------------------------------

 SCF Done:  E(RB3LYP) =  -1297.92964961     A.U. after   14 cycles

 The electronic state is 1-A.
 Alpha  occ. eigenvalues --  -19.19599 -19.19379 -19.19039 -19.18956 -19.18889
 Alpha  occ. eigenvalues --  -19.17520 -19.17284 -19.17114 -19.15385 -19.15113
 Alpha  occ. eigenvalues --  -19.14732 -10.31231 -10.31147 -10.26578 -10.25891
 Alpha  occ. eigenvalues --  -10.25817 -10.25725 -10.25589 -10.25133 -10.24853
 Alpha  occ. eigenvalues --  -10.24737 -10.24579 -10.24475  -1.10460  -1.09073
 Alpha  occ. eigenvalues --   -1.05312  -1.04962  -1.03985  -1.03787  -1.03037
 Alpha  occ. eigenvalues --   -1.02744  -1.01929  -1.00954  -1.00339  -0.82027
 Alpha  occ. eigenvalues --   -0.80016  -0.79648  -0.78426  -0.72364  -0.70561
 Alpha  occ. eigenvalues --   -0.67148  -0.65300  -0.63365  -0.62574  -0.61866
 Alpha  occ. eigenvalues --   -0.60096  -0.56567  -0.55687  -0.55042  -0.54712
 Alpha  occ. eigenvalues --   -0.53604  -0.53422  -0.53265  -0.52327  -0.51422
 Alpha  occ. eigenvalues --   -0.50759  -0.50402  -0.49323  -0.48864  -0.46615
 Alpha  occ. eigenvalues --   -0.46429  -0.45229  -0.44558  -0.43848  -0.43799
 Alpha  occ. eigenvalues --   -0.42892  -0.42062  -0.41285  -0.40202  -0.39237
 Alpha  occ. eigenvalues --   -0.38300  -0.37827  -0.37281  -0.36406  -0.35777
 Alpha  occ. eigenvalues --   -0.35022  -0.34700  -0.34268  -0.33684  -0.33415
 Alpha  occ. eigenvalues --   -0.32704  -0.31764  -0.31273  -0.30755  -0.29921
 Alpha  occ. eigenvalues --   -0.29615  -0.28450  -0.28248  -0.27466  -0.26597
 Alpha  occ. eigenvalues --   -0.26128
 Alpha virt. eigenvalues --   -0.02098  -0.01967  -0.01785  -0.00360   0.00151
 Alpha virt. eigenvalues --    0.00794   0.01772   0.02455   0.02945   0.03263
 Alpha virt. eigenvalues --    0.03683   0.04362   0.04704   0.05146   0.05750

 Mulliken atomic charges:
              1
     1  O   -0.526439
     2  C   -0.228611
     3  C    0.195166
     4  O   -0.529024
     5  H    0.358184
     6  C   -0.181569
     7  O   -0.517615
     8  H    0.416852
     9  C    0.002036
    10  O   -0.524192
    11  H    0.358955
    12  C    0.100427
    13  O   -0.429958
    14  C    0.302121
    15  O   -0.297246
    16  C    0.048122
    17  C   -0.214023
    18  O   -0.459975
    19  H    0.390230
    20  C    0.174221
    21  O   -0.534271
    22  H    0.358605
    23  C    0.137976
    24  O   -0.599732
    25  H    0.384288
    26  C   -0.075236
    27  O   -0.320449
    28  C    0.147071
    29  O   -0.562961
    30  H    0.365796
    31  H    0.146600
    32  H    0.128821
    33  H    0.119349
    34  H    0.137387
    35  H    0.137096
    36  H    0.149432
    37  H    0.124992
    38  H    0.366182
    39  H    0.143954
    40  H    0.145829
    41  H    0.130927
    42  H    0.118142
    43  H    0.143530
    44  H    0.149202
    45  H    0.119810
 Sum of Mulliken atomic charges =   0.00000

 Dipole moment (field-independent basis, Debye):
    X=              2.7389    Y=             -1.1129    Z=             -1.5779  Tot=              3.3511
 Quadrupole moment (field-independent basis, Debye-Ang):
   XX=           -120.1521   YY=           -132.9658   ZZ=           -142.3712
   XY=             12.0656   XZ=              2.5844   YZ=              1.6153

  Exact polarizability: 226.645  -1.513 194.149   1.677   0.715 141.293
 Approx polarizability: 263.693  -0.809 247.757   1.710  -0.276 232.598

 ******    7 imaginary frequencies (negative Signs) ******

                     1                      2                      3
                     A                      A                      A
 Frequencies --  -356.7746              -338.5049              -305.5424
 Red. masses --     1.6448                 1.1633                 1.1675
 Frc consts  --     0.1234                 0.0785                 0.0642
 IR Inten    --    12.9341               139.0369               114.3631
 Raman Activ --     0.1750                 1.3033                 1.2053

                     4                      5                      6
                     A                      A                      A
 Frequencies --  -238.1349               -92.4928               -62.5871
 Red. masses --     1.8633                 6.7846                 6.2822
 Frc consts  --     0.0623                 0.0342                 0.0145
 IR Inten    --     5.7257                 0.7152                 0.1206
 Raman Activ --     0.1195                 0.1205                 0.0350

                     7                      8                      9
                     A                      A                      A
 Frequencies --   -32.6207                57.4794                61.1146
 Red. masses --     6.4005                 6.6079                 6.5601
 Frc consts  --     0.0040                 0.0129                 0.0144
 IR Inten    --     3.0381                 0.6257                 0.9370
 Raman Activ --     0.0317                 0.0313                 0.0550

                    10                     11                     12
                     A                      A                      A
 Frequencies --    70.2270                85.6436               130.0813
 Red. masses --     6.8280                 6.5914                 5.7465
 Frc consts  --     0.0198                 0.0285                 0.0573
 IR Inten    --     0.5367                 0.1719                 2.8477
 Raman Activ --     0.1739                 0.1818                 0.1485

                    13                     14                     15
                     A                      A                      A
 Frequencies --   142.8663               175.4182               186.8617
 Red. masses --     5.8394                 6.5236                 6.1688
 Frc consts  --     0.0702                 0.1183                 0.1269
 IR Inten    --     2.7864                 0.7553                 2.3816
 Raman Activ --     0.2629                 0.1457                 0.3120

                    16                     17                     18
                     A                      A                      A
 Frequencies --   196.5595               228.8369               246.2295
 Red. masses --     6.5106                 6.1978                 4.5855
 Frc consts  --     0.1482                 0.1912                 0.1638
 IR Inten    --     0.3090                 4.1359                20.7066
 Raman Activ --     1.5426                 1.5959                 0.1925

                    19                     20                     21
                     A                      A                      A
 Frequencies --   276.4311               288.4537               293.5289
 Red. masses --     5.2381                 5.3279                 6.0070
 Frc consts  --     0.2358                 0.2612                 0.3049
 IR Inten    --     1.5101                 1.2232                 8.8175
 Raman Activ --     0.4227                 0.5262                 0.3186

                    22                     23                     24
                     A                      A                      A
 Frequencies --   305.1575               308.5567               317.5016
 Red. masses --     5.1326                 5.4427                 5.4949
 Frc consts  --     0.2816                 0.3053                 0.3264
 IR Inten    --     4.7548                 0.5753                 0.2704
 Raman Activ --     2.2791                 2.3510                 1.9156

                    25                     26                     27
                     A                      A                      A
 Frequencies --   334.6506               354.0701               388.2396
 Red. masses --     6.8345                 4.6332                 7.6681
 Frc consts  --     0.4510                 0.3422                 0.6810
 IR Inten    --     3.5224                 8.1360                 1.7098
 Raman Activ --     5.1283                 0.0857                 1.3528

                    28                     29                     30
                     A                      A                      A
 Frequencies --   408.4124               416.4756               428.1192
 Red. masses --     6.2721                 4.4478                 4.4732
 Frc consts  --     0.6164                 0.4545                 0.4831
 IR Inten    --     9.2340                19.2246                 2.6462
 Raman Activ --     4.0944                 1.1850                 2.6317

                    31                     32                     33
                     A                      A                      A
 Frequencies --   435.5652               480.8015               486.7586
 Red. masses --     5.2092                 4.7220                 4.2423
 Frc consts  --     0.5823                 0.6431                 0.5922
 IR Inten    --     8.9352                 7.9080                16.9143
 Raman Activ --     3.3150                 3.2280                 0.2530

                    34                     35                     36
                     A                      A                      A
 Frequencies --   509.4914               533.0941               566.1647
 Red. masses --     3.8849                 3.0442                 5.0725
 Frc consts  --     0.5942                 0.5097                 0.9580
 IR Inten    --     8.9657                14.3724                12.7407
 Raman Activ --     3.9503                 1.9213                 2.2070

                    37                     38                     39
                     A                      A                      A
 Frequencies --   575.3964               588.6060               607.6487
 Red. masses --     3.1223                 5.5778                 4.9935
 Frc consts  --     0.6091                 1.1386                 1.0863
 IR Inten    --    40.4453                10.1868                27.5011
 Raman Activ --     0.2766                 1.2580                 1.3058

                    40                     41                     42
                     A                      A                      A
 Frequencies --   636.7196               680.6988               682.3135
 Red. masses --     3.8039                 1.1292                 1.0690
 Frc consts  --     0.9086                 0.3083                 0.2932
 IR Inten    --    35.0109                39.8508               127.8627
 Raman Activ --     0.9090                 1.2000                 2.7163

                    43                     44                     45
                     A                      A                      A
 Frequencies --   685.3459               693.9790               733.4621
 Red. masses --     4.2793                 1.0560                 1.0770
 Frc consts  --     1.1843                 0.2996                 0.3414
 IR Inten    --    26.7321               119.8865               120.5988
 Raman Activ --     1.1341                 2.4959                 1.7072

                    46                     47                     48
                     A                      A                      A
 Frequencies --   761.1544               838.9989               858.1874
 Red. masses --     1.1108                 1.1001                 1.8893
 Frc consts  --     0.3792                 0.4563                 0.8198
 IR Inten    --   231.2762                88.3117                 2.9771
 Raman Activ --     6.1567                 1.2783                 2.0981

                    49                     50                     51
                     A                      A                      A
 Frequencies --   879.8601               941.2843               965.2784
 Red. masses --     1.6730                 5.0832                 3.7532
 Frc consts  --     0.7631                 2.6536                 2.0604
 IR Inten    --    13.6490               130.8788                43.6670
 Raman Activ --     1.3681                 3.3893                 0.6717

                    52                     53                     54
                     A                      A                      A
 Frequencies --   984.7401               994.5969               996.1718
 Red. masses --     5.2123                 4.4680                 5.5455
 Frc consts  --     2.9780                 2.6041                 3.2423
 IR Inten    --    29.1990                30.9351               208.9434
 Raman Activ --     1.9982                 0.7451                 0.9974

                    55                     56                     57
                     A                      A                      A
 Frequencies --  1008.3545              1020.4921              1035.3816
 Red. masses --     6.1989                 5.9593                 4.6666
 Frc consts  --     3.7136                 3.6565                 2.9475
 IR Inten    --   304.2234                14.9565                64.6081
 Raman Activ --     1.1012                 3.2041                 2.1228

                    58                     59                     60
                     A                      A                      A
 Frequencies --  1049.9177              1059.6574              1066.3539
 Red. masses --     4.8500                 3.0337                 4.8494
 Frc consts  --     3.1499                 2.0071                 3.2489
 IR Inten    --   390.8938                75.8943               129.3155
 Raman Activ --     1.6759                 6.5180                 1.2459

                    61                     62                     63
                     A                      A                      A
 Frequencies --  1079.2680              1084.1541              1091.4041
 Red. masses --     4.4253                 3.9244                 4.8064
 Frc consts  --     3.0370                 2.7177                 3.3732
 IR Inten    --    68.9801                86.4683                26.8856
 Raman Activ --     2.5815                 4.5478                10.0052

                    64                     65                     66
                     A                      A                      A
 Frequencies --  1102.0579              1109.1962              1121.1486
 Red. masses --     3.5870                 2.3223                 2.9096
 Frc consts  --     2.5668                 1.6834                 2.1548
 IR Inten    --    78.0599                60.2706                37.6740
 Raman Activ --    14.0181                 2.1958                 4.1587

                    67                     68                     69
                     A                      A                      A
 Frequencies --  1124.6870              1127.9926              1140.0366
 Red. masses --     2.7484                 2.8678                 2.4341
 Frc consts  --     2.0483                 2.1499                 1.8639
 IR Inten    --    50.5631                19.3651                28.5398
 Raman Activ --     5.8424                 6.2325                 7.9167

                    70                     71                     72
                     A                      A                      A
 Frequencies --  1142.0141              1158.8990              1168.2384
 Red. masses --     2.7064                 1.5505                 2.0041
 Frc consts  --     2.0796                 1.2269                 1.6115
 IR Inten    --    16.4256                 0.2212                21.4742
 Raman Activ --     8.9737                 2.9585                 1.5176

                    73                     74                     75
                     A                      A                      A
 Frequencies --  1178.1368              1194.8026              1207.3387
 Red. masses --     1.8075                 1.5817                 1.8471
 Frc consts  --     1.4782                 1.3304                 1.5863
 IR Inten    --     8.2272                 5.7637                 8.4148
 Raman Activ --     4.6260                 2.7808                 2.5342

                    76                     77                     78
                     A                      A                      A
 Frequencies --  1210.9037              1217.5217              1236.1601
 Red. masses --     1.2694                 1.6848                 1.3886
 Frc consts  --     1.0967                 1.4714                 1.2502
 IR Inten    --    10.0136                10.9081                18.8274
 Raman Activ --     2.5078                 2.8636                 1.3996

                    79                     80                     81
                     A                      A                      A
 Frequencies --  1240.6716              1244.9471              1252.7611
 Red. masses --     1.2076                 1.4639                 1.1933
 Frc consts  --     1.0952                 1.3368                 1.1035
 IR Inten    --    18.1319                13.7293                19.6238
 Raman Activ --     2.7601                 0.6417                 0.1396

                    82                     83                     84
                     A                      A                      A
 Frequencies --  1270.4255              1274.0589              1288.6143
 Red. masses --     1.3466                 1.2677                 1.2979
 Frc consts  --     1.2805                 1.2124                 1.2698
 IR Inten    --    17.9977                49.2556                 7.6529
 Raman Activ --     3.1739                 3.2827                 2.3748

                    85                     86                     87
                     A                      A                      A
 Frequencies --  1302.7759              1308.3827              1313.3596
 Red. masses --     1.3019                 1.3079                 1.2406
 Frc consts  --     1.3019                 1.3191                 1.2608
 IR Inten    --    55.7961                 3.7207                 7.0891
 Raman Activ --     4.8192                 6.4259                 1.7881

                    88                     89                     90
                     A                      A                      A
 Frequencies --  1321.8942              1324.4910              1332.0684
 Red. masses --     1.3316                 1.2528                 1.1282
 Frc consts  --     1.3709                 1.2949                 1.1795
 IR Inten    --    15.4347                13.4516                17.6263
 Raman Activ --     3.4827                 5.4377                12.3094

                    91                     92                     93
                     A                      A                      A
 Frequencies --  1339.2323              1345.4960              1352.3099
 Red. masses --     1.3103                 1.3723                 1.4257
 Frc consts  --     1.3846                 1.4638                 1.5362
 IR Inten    --    62.5245                12.7544                 9.9910
 Raman Activ --     1.0092                 4.6035                 4.3441

                    94                     95                     96
                     A                      A                      A
 Frequencies --  1367.4855              1377.0379              1382.2333
 Red. masses --     1.2581                 1.2759                 1.4586
 Frc consts  --     1.3862                 1.4255                 1.6419
 IR Inten    --    15.9222                 3.2897                19.1920
 Raman Activ --     1.6877                 2.5533                 4.2696

                    97                     98                     99
                     A                      A                      A
 Frequencies --  1385.2934              1397.3461              1399.6352
 Red. masses --     1.4989                 1.5151                 1.5513
 Frc consts  --     1.6948                 1.7430                 1.7906
 IR Inten    --     6.6201                39.0510                 8.8559
 Raman Activ --     9.0010                 1.1930                 5.1454

                   100                    101                    102
                     A                      A                      A
 Frequencies --  1416.9256              1431.3143              1451.7909
 Red. masses --     1.3524                 1.2620                 1.5248
 Frc consts  --     1.5998                 1.5233                 1.8935
 IR Inten    --     7.8319                 2.5243                15.4403
 Raman Activ --     5.6706                10.3545                 0.9463

                   103                    104                    105
                     A                      A                      A
 Frequencies --  1472.6828              1486.4480              1487.5099
 Red. masses --     1.2992                 1.0819                 1.1697
 Frc consts  --     1.6602                 1.4084                 1.5249
 IR Inten    --    15.9759                 2.5604                 2.1929
 Raman Activ --     4.3099                 5.6610                 2.4490

                   106                    107                    108
                     A                      A                      A
 Frequencies --  1491.3167              1519.7056              3259.6936
 Red. masses --     1.2720                 1.2700                 1.0710
 Frc consts  --     1.6668                 1.7281                 6.7050
 IR Inten    --    39.3978                36.3001                 7.9722
 Raman Activ --     2.4055                 0.8046               115.8652

                   109                    110                    111
                     A                      A                      A
 Frequencies --  3262.2597              3271.9691              3275.8149
 Red. masses --     1.0701                 1.0635                 1.0768
 Frc consts  --     6.7101                 6.7083                 6.8082
 IR Inten    --    44.0307                46.5840                31.3842
 Raman Activ --    15.2907                81.8841                11.9493

                   112                    113                    114
                     A                      A                      A
 Frequencies --  3281.8978              3286.0066              3287.3077
 Red. masses --     1.0839                 1.0816                 1.0833
 Frc consts  --     6.8787                 6.8809                 6.8970
 IR Inten    --     2.9859                15.6628                23.0529
 Raman Activ --     2.5039               118.5905               288.1287

                   115                    116                    117
                     A                      A                      A
 Frequencies --  3292.6253              3299.3171              3304.8894
 Red. masses --     1.0844                 1.0868                 1.0896
 Frc consts  --     6.9264                 6.9701                 7.0120
 IR Inten    --     6.5827                 7.8925                 9.4232
 Raman Activ --     3.8939                27.0781                31.7113

                   118                    119                    120
                     A                      A                      A
 Frequencies --  3310.4165              3312.0451              3315.4036
 Red. masses --     1.0980                 1.0885                 1.0731
 Frc consts  --     7.0897                 7.0354                 6.9497
 IR Inten    --    58.8922                16.9430               352.3995
 Raman Activ --    28.7869                 6.1294               114.6979

                   121                    122                    123
                     A                      A                      A
 Frequencies --  3318.1083              3332.7608              3366.0208
 Red. masses --     1.0817                 1.1084                 1.0660
 Frc consts  --     7.0167                 7.2537                 7.1161
 IR Inten    --   209.9360                46.5670               294.6709
 Raman Activ --   121.0037                60.5756               109.5522

                   124                    125                    126
                     A                      A                      A
 Frequencies --  3383.3520              3386.6614              3394.5640
 Red. masses --     1.0668                 1.0673                 1.0671
 Frc consts  --     7.1946                 7.2123                 7.2445
 IR Inten    --    36.5036                45.9013                48.0295
 Raman Activ --   137.0199               170.1795               161.7258

                   127                    128                    129
                     A                      A                      A
 Frequencies --  3398.6229              3918.3902              3922.1176
 Red. masses --     1.0669                 1.0678                 1.0676
 Frc consts  --     7.2604                 9.6598                 9.6759
 IR Inten    --    61.6321                73.0128                79.2614
 Raman Activ --   129.6450                89.7458                99.9680

 - Thermochemistry -
 -------------------
 Temperature   298.150 Kelvin.  Pressure   1.00000 Atm.
 Atom     1 has atomic number  8 and mass  15.99491

 Molecular mass:   342.11621 amu.
 Principal axes and moments of inertia in atomic units:
                           1         2         3
     Eigenvalues --  4563.55774********************
           X            0.99997   0.00733  -0.00039
           Y           -0.00733   0.99997   0.00157
           Z            0.00040  -0.00156   1.00000
 This molecule is an asymmetric top.
 Rotational symmetry number  1.
 Warning -- assumption of classical behavior for rotation
           may cause significant error
 Rotational temperatures (Kelvin)      0.01898     0.00710     0.00533
 Rotational constants (GHZ):           0.39547     0.14788     0.11103
    7 imaginary frequencies ignored.
 Zero-point vibrational energy     978005.8 (Joules/Mol)
                                  233.74900 (Kcal/Mol)
 Warning -- explicit consideration of  32 degrees of freedom as
           vibrations may cause significant error
 Vibrational temperatures:     82.70    87.93   101.04   123.22   187.16
          (Kelvin)            205.55   252.39   268.85   282.80   329.24
                              354.27   397.72   415.02   422.32   439.05
                              443.94   456.81   481.49   509.43   558.59
                              587.61   599.21   615.97   626.68   691.77
                              700.34   733.04   767.00   814.58   827.87
                              846.87   874.27   916.10   979.37   981.70
                              986.06   998.48  1055.29  1095.13  1207.13
                             1234.74  1265.92  1354.30  1388.82  1416.82
                             1431.00  1433.27  1450.80  1468.26  1489.68
                             1510.60  1524.61  1534.24  1552.82  1559.85
                             1570.29  1585.61  1595.88  1613.08  1618.17
                             1622.93  1640.26  1643.10  1667.40  1680.83
                             1695.07  1719.05  1737.09  1742.22  1751.74
                             1778.56  1785.05  1791.20  1802.44  1827.86
                             1833.08  1854.03  1874.40  1882.47  1889.63
                             1901.91  1905.64  1916.55  1926.85  1935.87
                             1945.67  1967.50  1981.25  1988.72  1993.13
                             2010.47  2013.76  2038.64  2059.34  2088.80
                             2118.86  2138.66  2140.19  2145.67  2186.51
                             4689.97  4693.66  4707.63  4713.16  4721.91
                             4727.82  4729.70  4737.35  4746.98  4754.99
                             4762.94  4765.29  4770.12  4774.01  4795.09
                             4842.95  4867.88  4872.64  4884.01  4889.85
                             5637.68  5643.05

 Zero-point correction=                           0.372503 (Hartree/Particle)
 Thermal correction to Energy=                    0.390950
 Thermal correction to Enthalpy=                  0.391894
 Thermal correction to Gibbs Free Energy=         0.326870
 Sum of electronic and zero-point Energies=          -1297.557147
 Sum of electronic and thermal Energies=             -1297.538700
 Sum of electronic and thermal Enthalpies=           -1297.537756
 Sum of electronic and thermal Free Energies=        -1297.602779

                     E (Thermal)             CV                S
                      KCal/Mol        Cal/Mol-Kelvin    Cal/Mol-Kelvin
 Total                  245.325             75.979            136.854
 Electronic               0.000              0.000              0.000
 Translational            0.889              2.981             43.384
 Rotational               0.889              2.981             35.158
 Vibrational            243.547             70.018             58.311
 Vibration     1          0.596              1.975              4.542
 Vibration     2          0.597              1.973              4.421
 Vibration     3          0.598              1.968              4.147
 Vibration     4          0.601              1.959              3.757
 Vibration     5          0.612              1.923              2.945
 Vibration     6          0.616              1.910              2.765
 Vibration     7          0.627              1.873              2.377
 Vibration     8          0.632              1.858              2.259
 Vibration     9          0.636              1.845              2.165
 Vibration    10          0.652              1.797              1.888
 Vibration    11          0.661              1.769              1.757
 Vibration    12          0.678              1.717              1.556
 Vibration    13          0.685              1.695              1.483
 Vibration    14          0.688              1.686              1.454
 Vibration    15          0.696              1.664              1.388
 Vibration    16          0.698              1.657              1.370
 Vibration    17          0.704              1.640              1.323
 Vibration    18          0.716              1.606              1.238
 Vibration    19          0.730              1.567              1.148
 Vibration    20          0.756              1.495              1.007
 Vibration    21          0.773              1.452              0.932
 Vibration    22          0.780              1.434              0.904
 Vibration    23          0.790              1.409              0.865
 Vibration    24          0.796              1.393              0.841
 Vibration    25          0.837              1.293              0.708
 Vibration    26          0.843              1.279              0.692
 Vibration    27          0.865              1.229              0.635
 Vibration    28          0.888              1.177              0.580
 Vibration    29          0.922              1.104              0.512
 Vibration    30          0.932              1.084              0.494
 Vibration    31          0.946              1.056              0.470
 Vibration    32          0.966              1.016              0.437

 Normal termination of Gaussian 09 at Tue Mar  1 03:25:15 2016.
