 Gaussian 09, Revision B.01,
 Gaussian 09:  EM64L-G09RevB.01 12-Aug-2010

 -------------------------------------------------
 # freq=raman b3lyp/6-31+g(2d,p) geom=connectivity
 -------------------------------------------------

 -----------------
 493 5508/5508.com
 -----------------
 Symbolic Z-matrix:
 Charge =  0 Multiplicity = 1

                         Standard orientation:
 ---------------------------------------------------------------------
 Center     Atomic      Atomic             Coordinates (Angstroms)
 Number     Number       Type             X           Y           Z
 ---------------------------------------------------------------------
      1          8           0       -5.071964   -0.311807    0.196435
      2          6           0       -3.731238   -0.105300   -0.271191
      3          6           0       -3.266083    1.231745    0.283486
      4          8           0       -4.172454    2.319027    0.048257
      5          1           0       -5.125059    2.022294   -0.016788
      6          6           0       -1.830554    1.520068   -0.124061
      7          8           0       -1.318940    2.724443    0.466019
      8          1           0       -0.404540    2.869834    0.088506
      9          6           0       -2.989458   -2.570560   -0.226834
     10          8           0       -4.165231   -3.230187    0.265178
     11          1           0       -3.944275   -4.205646    0.291977
     12          6           0       -2.719913   -1.138015    0.201263
     13          8           0       -1.390936   -0.887293   -0.278856
     14          6           0       -0.931440    0.358901    0.265224
     15          8           0        0.257482    0.471185   -0.530322
     16          6           0        1.487484    0.151089    0.136548
     17          6           0        2.061713   -1.171790   -0.342208
     18          8           0        1.113390   -2.171383    0.058335
     19          1           0        0.190607   -1.796918   -0.029272
     20          6           0        3.446775   -1.527719    0.171594
     21          8           0        3.981679   -2.704613   -0.451196
     22          1           0        4.678533   -3.040782    0.182002
     23          6           0        2.349699    2.620095   -0.092959
     24          8           0        1.084504    3.216104   -0.415234
     25          1           0        1.240139    4.190444   -0.253043
     26          6           0        2.527020    1.136591   -0.371956
     27          8           0        3.826133    0.959236    0.210074
     28          6           0        4.341680   -0.336101   -0.128740
     29          8           0        5.332533   -0.413632    0.907444
     30          1           0        6.206113   -0.459655    0.512045
     31          1           0        4.775141   -0.370823   -1.106393
     32          1           0        3.402551   -1.677979    1.230067
     33          1           0        2.098052   -1.152688   -1.411420
     34          1           0        1.391828    0.186321    1.201681
     35          1           0        2.613981    1.005551   -1.430335
     36          1           0        3.105143    3.146015   -0.638498
     37          1           0        2.527123    2.778120    0.950329
     38          1           0       -5.662375   -0.403579   -0.554958
     39          1           0       -2.144908   -3.157907    0.067545
     40          1           0       -3.038190   -2.582453   -1.295657
     41          1           0       -2.697450   -1.110542    1.270674
     42          1           0       -3.728809   -0.067630   -1.340525
     43          1           0       -3.242306    1.107642    1.345998
     44          1           0       -1.799107    1.627859   -1.188153
     45          1           0       -0.725881    0.309876    1.314149
 ---------------------------------------------------------------------

 SCF Done:  E(RB3LYP) =  -1297.98102336     A.U. after   13 cycles

 The electronic state is 1-A.
 Alpha  occ. eigenvalues --  -19.18835 -19.18775 -19.17839 -19.17801 -19.17070
 Alpha  occ. eigenvalues --  -19.17038 -19.16825 -19.15980 -19.14576 -19.13343
 Alpha  occ. eigenvalues --  -19.12711 -10.30433 -10.29982 -10.25574 -10.25343
 Alpha  occ. eigenvalues --  -10.25314 -10.25271 -10.25002 -10.24832 -10.23979
 Alpha  occ. eigenvalues --  -10.23907 -10.23778 -10.23731  -1.10743  -1.09361
 Alpha  occ. eigenvalues --   -1.05830  -1.05217  -1.04002  -1.03825  -1.02437
 Alpha  occ. eigenvalues --   -1.02103  -1.01235  -1.00438  -0.99471  -0.82110
 Alpha  occ. eigenvalues --   -0.80598  -0.79130  -0.77953  -0.71814  -0.69588
 Alpha  occ. eigenvalues --   -0.67068  -0.64864  -0.62854  -0.62314  -0.61584
 Alpha  occ. eigenvalues --   -0.60438  -0.56681  -0.55674  -0.54695  -0.54370
 Alpha  occ. eigenvalues --   -0.53887  -0.53388  -0.52361  -0.52007  -0.51044
 Alpha  occ. eigenvalues --   -0.50709  -0.49772  -0.49158  -0.48752  -0.46723
 Alpha  occ. eigenvalues --   -0.46138  -0.44936  -0.43949  -0.43271  -0.43184
 Alpha  occ. eigenvalues --   -0.42293  -0.41225  -0.41001  -0.40538  -0.39201
 Alpha  occ. eigenvalues --   -0.38862  -0.38143  -0.37732  -0.36412  -0.35802
 Alpha  occ. eigenvalues --   -0.35761  -0.35430  -0.34138  -0.33661  -0.33507
 Alpha  occ. eigenvalues --   -0.32304  -0.31356  -0.31209  -0.30384  -0.29538
 Alpha  occ. eigenvalues --   -0.29068  -0.28623  -0.28445  -0.26942  -0.26723
 Alpha  occ. eigenvalues --   -0.25900
 Alpha virt. eigenvalues --   -0.01845  -0.01771  -0.01401  -0.00401   0.00021
 Alpha virt. eigenvalues --    0.00932   0.01906   0.02142   0.02655   0.03461
 Alpha virt. eigenvalues --    0.04027   0.04295   0.04817   0.05457   0.05657

 Mulliken atomic charges:
              1
     1  O   -0.535510
     2  C   -0.083430
     3  C    0.108319
     4  O   -0.571408
     5  H    0.341270
     6  C    0.099818
     7  O   -0.598736
     8  H    0.442774
     9  C   -0.213608
    10  O   -0.519674
    11  H    0.334550
    12  C    0.218181
    13  O   -0.211989
    14  C    0.022197
    15  O   -0.181828
    16  C    0.144843
    17  C    0.226874
    18  O   -0.608597
    19  H    0.389047
    20  C    0.008848
    21  O   -0.521364
    22  H    0.335257
    23  C   -0.233564
    24  O   -0.572560
    25  H    0.355949
    26  C   -0.097313
    27  O   -0.213514
    28  C    0.153518
    29  O   -0.520221
    30  H    0.322376
    31  H    0.138159
    32  H    0.141647
    33  H    0.123754
    34  H    0.122125
    35  H    0.119201
    36  H    0.147424
    37  H    0.156441
    38  H    0.339051
    39  H    0.141444
    40  H    0.140395
    41  H    0.110801
    42  H    0.117929
    43  H    0.112222
    44  H    0.127607
    45  H    0.141290
 Sum of Mulliken atomic charges =   0.00000

 Dipole moment (field-independent basis, Debye):
    X=              3.0532    Y=             -0.3612    Z=             -1.7805  Tot=              3.5529
 Quadrupole moment (field-independent basis, Debye-Ang):
   XX=           -118.4204   YY=           -136.4950   ZZ=           -138.8531
   XY=             13.0856   XZ=              6.0740   YZ=             -4.7850

  Exact polarizability: 234.492  -2.509 196.416   1.412   0.152 143.458
 Approx polarizability: 274.734  -3.072 256.335   1.502   1.162 239.769

 ******    6 imaginary frequencies (negative Signs) ******

                     1                      2                      3
                     A                      A                      A
 Frequencies --  -276.2230              -274.7366              -239.6113
 Red. masses --     1.6927                 1.1573                 1.8621
 Frc consts  --     0.0761                 0.0515                 0.0630
 IR Inten    --     8.9771                97.3506                 1.5445
 Raman Activ --     0.1733                 1.3133                 0.1188

                     4                      5                      6
                     A                      A                      A
 Frequencies --  -214.9573               -82.9840               -63.1864
 Red. masses --     1.2236                 5.7399                 6.7990
 Frc consts  --     0.0333                 0.0233                 0.0160
 IR Inten    --    94.6270                 0.9744                 1.1865
 Raman Activ --     0.7222                 0.0491                 0.0271

                     7                      8                      9
                     A                      A                      A
 Frequencies --     5.6420                58.0704                70.6171
 Red. masses --     6.3227                 5.9716                 6.3779
 Frc consts  --     0.0001                 0.0119                 0.0187
 IR Inten    --     0.8689                 3.0306                 1.0300
 Raman Activ --     0.0339                 0.1116                 0.0552

                    10                     11                     12
                     A                      A                      A
 Frequencies --    83.4316                94.4396                99.6032
 Red. masses --     6.2633                 6.7604                 6.7690
 Frc consts  --     0.0257                 0.0355                 0.0396
 IR Inten    --     1.7071                 1.0198                 1.1889
 Raman Activ --     0.1412                 0.0832                 0.0945

                    13                     14                     15
                     A                      A                      A
 Frequencies --   161.1283               174.7116               181.2268
 Red. masses --     6.4465                 5.5456                 8.1227
 Frc consts  --     0.0986                 0.0997                 0.1572
 IR Inten    --     3.0139                 2.0179                 0.4225
 Raman Activ --     0.4883                 0.3366                 0.8012

                    16                     17                     18
                     A                      A                      A
 Frequencies --   217.7703               241.3611               269.3787
 Red. masses --     7.1834                 6.2910                 5.2523
 Frc consts  --     0.2007                 0.2159                 0.2246
 IR Inten    --     0.0261                 1.5847                 5.2903
 Raman Activ --     2.6224                 0.2668                 0.1479

                    19                     20                     21
                     A                      A                      A
 Frequencies --   282.2807               302.6402               307.9512
 Red. masses --     4.3902                 4.4058                 4.9776
 Frc consts  --     0.2061                 0.2378                 0.2781
 IR Inten    --    15.6131                 0.4528                 1.0979
 Raman Activ --     0.2910                 0.1780                 0.2620

                    22                     23                     24
                     A                      A                      A
 Frequencies --   313.5777               326.4731               333.7837
 Red. masses --     5.9415                 5.7044                 5.8884
 Frc consts  --     0.3442                 0.3582                 0.3865
 IR Inten    --     3.4859                 0.6823                 0.1433
 Raman Activ --     1.0734                 3.7735                 1.3259

                    25                     26                     27
                     A                      A                      A
 Frequencies --   354.6853               377.8900               379.8590
 Red. masses --     6.5379                 5.0193                 6.5655
 Frc consts  --     0.4846                 0.4223                 0.5582
 IR Inten    --    12.9382                 5.0151                 0.7912
 Raman Activ --     1.2964                 0.1813                 3.4210

                    28                     29                     30
                     A                      A                      A
 Frequencies --   407.1426               430.5974               436.1773
 Red. masses --     3.6987                 5.9148                 6.0394
 Frc consts  --     0.3612                 0.6461                 0.6770
 IR Inten    --    18.7171                 1.2181                 1.7966
 Raman Activ --     1.1333                 7.7319                 0.8257

                    31                     32                     33
                     A                      A                      A
 Frequencies --   456.5957               476.5748               499.2317
 Red. masses --     4.8245                 4.9805                 3.8896
 Frc consts  --     0.5926                 0.6665                 0.5712
 IR Inten    --     1.5771                 5.5427                11.1443
 Raman Activ --     1.2115                 4.9258                 0.7639

                    34                     35                     36
                     A                      A                      A
 Frequencies --   519.0319               528.5282               575.8559
 Red. masses --     4.0391                 3.0462                 3.8263
 Frc consts  --     0.6411                 0.5014                 0.7476
 IR Inten    --     8.2286                 1.7161                14.7574
 Raman Activ --     1.1048                 5.1116                 1.8948

                    37                     38                     39
                     A                      A                      A
 Frequencies --   603.3047               610.1837               632.8633
 Red. masses --     2.7302                 6.4350                 3.5129
 Frc consts  --     0.5855                 1.4116                 0.8290
 IR Inten    --    40.3630                 9.4779                22.7749
 Raman Activ --     0.2404                 0.5233                 1.4501

                    40                     41                     42
                     A                      A                      A
 Frequencies --   650.6660               689.4912               706.0677
 Red. masses --     6.3310                 1.0899                 2.8106
 Frc consts  --     1.5792                 0.3053                 0.8256
 IR Inten    --    24.6331                76.5278                35.6498
 Raman Activ --     1.0341                 2.0842                 1.0051

                    43                     44                     45
                     A                      A                      A
 Frequencies --   712.0921               724.4031               767.0556
 Red. masses --     1.2899                 1.0945                 1.1207
 Frc consts  --     0.3854                 0.3384                 0.3885
 IR Inten    --    72.1342                86.3920               107.2316
 Raman Activ --     1.8873                 1.7675                 1.3562

                    46                     47                     48
                     A                      A                      A
 Frequencies --   824.6182               845.6414               870.2375
 Red. masses --     1.0663                 1.7891                 1.3955
 Frc consts  --     0.4272                 0.7538                 0.6227
 IR Inten    --    61.5981                 3.3282                21.9478
 Raman Activ --     0.4451                 0.6723                 1.3573

                    49                     50                     51
                     A                      A                      A
 Frequencies --   891.5975               922.5182               955.6226
 Red. masses --     1.2979                 4.7387                 5.5597
 Frc consts  --     0.6079                 2.3761                 2.9914
 IR Inten    --    37.8600                85.8234                79.0249
 Raman Activ --     0.9830                 2.6252                 0.5531

                    52                     53                     54
                     A                      A                      A
 Frequencies --   982.2534               984.1541               987.6348
 Red. masses --     5.2534                 4.8871                 6.3997
 Frc consts  --     2.9863                 2.7889                 3.6779
 IR Inten    --    97.8193               178.4046                60.9171
 Raman Activ --     1.0100                 0.9114                 6.0590

                    55                     56                     57
                     A                      A                      A
 Frequencies --  1000.8602              1005.5738              1019.1803
 Red. masses --     7.0132                 5.6719                 6.3078
 Frc consts  --     4.1392                 3.3792                 3.8604
 IR Inten    --    72.2456               184.5276               171.9981
 Raman Activ --     1.2329                 2.3918                 3.0143

                    58                     59                     60
                     A                      A                      A
 Frequencies --  1041.3848              1060.2837              1065.5534
 Red. masses --     4.6562                 3.9965                 3.9593
 Frc consts  --     2.9751                 2.6472                 2.6486
 IR Inten    --   210.6681                74.0677               101.2854
 Raman Activ --     3.1400                 4.6392                 4.1205

                    61                     62                     63
                     A                      A                      A
 Frequencies --  1067.5203              1069.9098              1083.2164
 Red. masses --     3.7867                 3.9705                 4.7200
 Frc consts  --     2.5425                 2.6779                 3.2631
 IR Inten    --    18.5208                37.5525                61.0566
 Raman Activ --    12.0745                15.8708                11.3238

                    64                     65                     66
                     A                      A                      A
 Frequencies --  1093.6949              1104.5489              1109.7544
 Red. masses --     2.6665                 2.5604                 2.9162
 Frc consts  --     1.8793                 1.8405                 2.1160
 IR Inten    --    10.5722                47.9339                29.0236
 Raman Activ --     3.7479                 4.2925                11.6657

                    67                     68                     69
                     A                      A                      A
 Frequencies --  1116.3065              1121.0224              1129.7726
 Red. masses --     2.9711                 2.3098                 2.2996
 Frc consts  --     2.1814                 1.7103                 1.7294
 IR Inten    --   100.0822                29.9797                25.6813
 Raman Activ --     5.0863                 2.0443                 1.5623

                    70                     71                     72
                     A                      A                      A
 Frequencies --  1135.0418              1147.3970              1149.1975
 Red. masses --     2.1038                 2.2089                 2.3449
 Frc consts  --     1.5969                 1.7134                 1.8246
 IR Inten    --    25.8121                34.3336                21.4244
 Raman Activ --    13.9857                 2.9420                 2.1987

                    73                     74                     75
                     A                      A                      A
 Frequencies --  1165.9405              1176.8896              1180.0146
 Red. masses --     2.2221                 1.5720                 1.6981
 Frc consts  --     1.7798                 1.2828                 1.3931
 IR Inten    --    10.8659                15.2173                20.2189
 Raman Activ --     5.6606                 3.1713                 2.2656

                    76                     77                     78
                     A                      A                      A
 Frequencies --  1200.2784              1212.2917              1219.5343
 Red. masses --     1.5332                 1.2529                 1.2555
 Frc consts  --     1.3014                 1.0849                 1.1002
 IR Inten    --    21.0355                16.3685                 5.3107
 Raman Activ --     1.7062                 1.8217                 0.7886

                    79                     80                     81
                     A                      A                      A
 Frequencies --  1223.8535              1230.8065              1252.1111
 Red. masses --     1.2840                 1.3788                 1.2696
 Frc consts  --     1.1331                 1.2307                 1.1727
 IR Inten    --     8.2709                 0.5014                15.7972
 Raman Activ --     2.4749                 0.5537                 0.8673

                    82                     83                     84
                     A                      A                      A
 Frequencies --  1273.1608              1276.2490              1283.6960
 Red. masses --     1.2475                 1.3572                 1.2788
 Frc consts  --     1.1914                 1.3024                 1.2415
 IR Inten    --     7.0288                16.7314                 1.2861
 Raman Activ --     1.6908                 1.8657                 1.7968

                    85                     86                     87
                     A                      A                      A
 Frequencies --  1292.4799              1295.0450              1300.8673
 Red. masses --     1.3406                 1.3002                 1.2603
 Frc consts  --     1.3195                 1.2848                 1.2566
 IR Inten    --     9.9620                35.2511                25.2657
 Raman Activ --     2.5531                 1.8912                 3.6295

                    88                     89                     90
                     A                      A                      A
 Frequencies --  1309.8798              1318.2561              1322.4739
 Red. masses --     1.2594                 1.2129                 1.4551
 Frc consts  --     1.2732                 1.2418                 1.4994
 IR Inten    --    12.8004                 3.7835                31.4161
 Raman Activ --    11.7567                 9.1324                 2.8452

                    91                     92                     93
                     A                      A                      A
 Frequencies --  1342.5007              1350.7136              1354.1715
 Red. masses --     1.2069                 1.2653                 1.1600
 Frc consts  --     1.2816                 1.3601                 1.2533
 IR Inten    --    30.4848                18.7716                56.1644
 Raman Activ --     3.1557                 3.7148                 1.5437

                    94                     95                     96
                     A                      A                      A
 Frequencies --  1358.4897              1367.8029              1369.8532
 Red. masses --     1.3333                 1.4617                 1.5936
 Frc consts  --     1.4497                 1.6112                 1.7619
 IR Inten    --    16.4713                34.0632                11.8843
 Raman Activ --    10.7310                 4.3035                 5.1261

                    97                     98                     99
                     A                      A                      A
 Frequencies --  1372.2557              1393.9857              1402.5641
 Red. masses --     1.2504                 1.4654                 1.5491
 Frc consts  --     1.3873                 1.6777                 1.7955
 IR Inten    --    13.7149                21.1046                 3.7285
 Raman Activ --     2.3377                 2.8444                 5.3835

                   100                    101                    102
                     A                      A                      A
 Frequencies --  1405.8838              1459.6460              1466.9239
 Red. masses --     1.6039                 1.2782                 1.0837
 Frc consts  --     1.8677                 1.6045                 1.3740
 IR Inten    --     9.3634                29.4398                 4.4640
 Raman Activ --     3.7988                 2.5731                 4.7639

                   103                    104                    105
                     A                      A                      A
 Frequencies --  1477.1089              1480.1999              1487.5674
 Red. masses --     1.0760                 1.3458                 1.3891
 Frc consts  --     1.3832                 1.7373                 1.8111
 IR Inten    --     2.2152                29.1236                23.5805
 Raman Activ --     5.0302                 0.7074                 1.1458

                   106                    107                    108
                     A                      A                      A
 Frequencies --  1509.8074              1546.4000              3221.9110
 Red. masses --     1.2611                 1.2028                 1.0685
 Frc consts  --     1.6937                 1.6946                 6.5354
 IR Inten    --    43.9671                31.8980              1075.2740
 Raman Activ --     3.0564                 0.7855               172.1657

                   109                    110                    111
                     A                      A                      A
 Frequencies --  3255.1831              3261.2393              3263.7450
 Red. masses --     1.0584                 1.0794                 1.0584
 Frc consts  --     6.6079                 6.7637                 6.6426
 IR Inten    --    23.5483                33.4754                 6.3409
 Raman Activ --    61.9945               120.3502               130.4310

                   112                    113                    114
                     A                      A                      A
 Frequencies --  3266.0573              3272.7997              3277.9924
 Red. masses --     1.0833                 1.0815                 1.0821
 Frc consts  --     6.8087                 6.8254                 6.8508
 IR Inten    --    43.3851                26.6032                50.4674
 Raman Activ --     8.2079                78.7227               146.0519

                   115                    116                    117
                     A                      A                      A
 Frequencies --  3283.4837              3292.8304              3294.7195
 Red. masses --     1.0846                 1.0871                 1.0863
 Frc consts  --     6.8893                 6.9449                 6.9478
 IR Inten    --     2.0602                30.3906                 2.6471
 Raman Activ --    39.1445                46.3156                34.2544

                   118                    119                    120
                     A                      A                      A
 Frequencies --  3297.8277              3299.0653              3305.8250
 Red. masses --     1.0744                 1.0853                 1.0878
 Frc consts  --     6.8842                 6.9593                 7.0045
 IR Inten    --   456.1350               154.1045                16.5178
 Raman Activ --    74.8883                80.5901                50.7044

                   121                    122                    123
                     A                      A                      A
 Frequencies --  3309.2939              3311.3693              3318.4484
 Red. masses --     1.0913                 1.0987                 1.1065
 Frc consts  --     7.0412                 7.0981                 7.1789
 IR Inten    --    45.3804               128.2858                48.3701
 Raman Activ --    33.3222                45.2250                52.0559

                   124                    125                    126
                     A                      A                      A
 Frequencies --  3363.7123              3370.0268              3371.7835
 Red. masses --     1.0682                 1.0659                 1.0655
 Frc consts  --     7.1213                 7.1327                 7.1372
 IR Inten    --    38.1044                41.9224                55.2753
 Raman Activ --   135.0333               124.7111               125.4690

                   127                    128                    129
                     A                      A                      A
 Frequencies --  3378.0321              3887.6496              3888.7148
 Red. masses --     1.0663                 1.0674                 1.0677
 Frc consts  --     7.1690                 9.5046                 9.5129
 IR Inten    --    42.9001                54.4738                71.9006
 Raman Activ --   141.2647               132.6007                99.7393

 - Thermochemistry -
 -------------------
 Temperature   298.150 Kelvin.  Pressure   1.00000 Atm.
 Atom     1 has atomic number  8 and mass  15.99491

 Molecular mass:   342.11621 amu.
 Principal axes and moments of inertia in atomic units:
                           1         2         3
     Eigenvalues --  4343.73587********************
           X            0.99997   0.00711   0.00066
           Y           -0.00711   0.99997  -0.00127
           Z           -0.00067   0.00126   1.00000
 This molecule is an asymmetric top.
 Rotational symmetry number  1.
 Warning -- assumption of classical behavior for rotation
           may cause significant error
 Rotational temperatures (Kelvin)      0.01994     0.00703     0.00533
 Rotational constants (GHZ):           0.41548     0.14650     0.11114
    6 imaginary frequencies ignored.
 Zero-point vibrational energy     976860.3 (Joules/Mol)
                                  233.47522 (Kcal/Mol)
 Warning -- explicit consideration of  32 degrees of freedom as
           vibrations may cause significant error
 Vibrational temperatures:      8.12    83.55   101.60   120.04   135.88
          (Kelvin)            143.31   231.83   251.37   260.74   313.32
                              347.26   387.58   406.14   435.43   443.07
                              451.17   469.72   480.24   510.31   543.70
                              546.53   585.79   619.53   627.56   656.94
                              685.68   718.28   746.77   760.43   828.53
                              868.02   877.92   910.55   936.16   992.02
                             1015.87  1024.54  1042.25  1103.62  1186.44
                             1216.69  1252.08  1282.81  1327.30  1374.93
                             1413.24  1415.98  1420.98  1440.01  1446.79
                             1466.37  1498.32  1525.51  1533.09  1535.92
                             1539.36  1558.50  1573.58  1589.20  1596.69
                             1606.11  1612.90  1625.49  1633.07  1650.85
                             1653.44  1677.53  1693.28  1697.78  1726.93
                             1744.22  1754.64  1760.85  1770.85  1801.51
                             1831.79  1836.24  1846.95  1859.59  1863.28
                             1871.66  1884.62  1896.67  1902.74  1931.56
                             1943.37  1948.35  1954.56  1967.96  1970.91
                             1974.37  2005.63  2017.97  2022.75  2100.10
                             2110.57  2125.23  2129.67  2140.28  2172.27
                             2224.92  4635.61  4683.48  4692.19  4695.80
                             4699.12  4708.82  4716.29  4724.19  4737.64
                             4740.36  4744.83  4746.61  4756.34  4761.33
                             4764.32  4774.50  4839.63  4848.71  4851.24
                             4860.23  5593.45  5594.99

 Zero-point correction=                           0.372066 (Hartree/Particle)
 Thermal correction to Energy=                    0.391062
 Thermal correction to Enthalpy=                  0.392006
 Thermal correction to Gibbs Free Energy=         0.323581
 Sum of electronic and zero-point Energies=          -1297.608957
 Sum of electronic and thermal Energies=             -1297.589961
 Sum of electronic and thermal Enthalpies=           -1297.589017
 Sum of electronic and thermal Free Energies=        -1297.657443

                     E (Thermal)             CV                S
                      KCal/Mol        Cal/Mol-Kelvin    Cal/Mol-Kelvin
 Total                  245.395             77.250            144.013
 Electronic               0.000              0.000              0.000
 Translational            0.889              2.981             43.384
 Rotational               0.889              2.981             35.118
 Vibrational            243.618             71.288             65.511
 Vibration     1          0.593              1.987              9.148
 Vibration     2          0.596              1.974              4.522
 Vibration     3          0.598              1.968              4.136
 Vibration     4          0.600              1.961              3.808
 Vibration     5          0.603              1.953              3.566
 Vibration     6          0.604              1.949              3.462
 Vibration     7          0.622              1.890              2.537
 Vibration     8          0.627              1.874              2.384
 Vibration     9          0.630              1.865              2.316
 Vibration    10          0.646              1.814              1.978
 Vibration    11          0.658              1.777              1.793
 Vibration    12          0.674              1.730              1.600
 Vibration    13          0.681              1.706              1.520
 Vibration    14          0.694              1.669              1.402
 Vibration    15          0.698              1.659              1.373
 Vibration    16          0.701              1.648              1.343
 Vibration    17          0.710              1.623              1.277
 Vibration    18          0.715              1.608              1.242
 Vibration    19          0.731              1.566              1.145
 Vibration    20          0.748              1.517              1.048
 Vibration    21          0.750              1.513              1.040
 Vibration    22          0.772              1.455              0.937
 Vibration    23          0.792              1.404              0.857
 Vibration    24          0.797              1.391              0.839
 Vibration    25          0.815              1.346              0.776
 Vibration    26          0.833              1.302              0.719
 Vibration    27          0.855              1.252              0.660
 Vibration    28          0.874              1.208              0.612
 Vibration    29          0.883              1.187              0.591
 Vibration    30          0.932              1.083              0.493
 Vibration    31          0.962              1.025              0.444
 Vibration    32          0.969              1.010              0.432

 Normal termination of Gaussian 09 at Thu Mar 31 01:30:59 2016.
