 Gaussian 09, Revision B.01,
 Gaussian 09:  EM64L-G09RevB.01 12-Aug-2010

 -------------------------------------------------
 # freq=raman b3lyp/6-31+g(2d,p) geom=connectivity
 -------------------------------------------------

 -----------------
 450 6535/6535.com
 -----------------
 Symbolic Z-matrix:
 Charge =  0 Multiplicity = 1

                         Standard orientation:
 ---------------------------------------------------------------------
 Center     Atomic      Atomic             Coordinates (Angstroms)
 Number     Number       Type             X           Y           Z
 ---------------------------------------------------------------------
      1          8           0        4.934555   -0.402709   -0.830990
      2          6           0        3.884227   -0.048590    0.079639
      3          6           0        3.270055    1.284416   -0.316410
      4          8           0        4.196059    2.287019    0.128424
      5          1           0        5.097010    1.912182   -0.091469
      6          6           0        1.898187    1.653993    0.223361
      7          8           0        1.452465    2.769005   -0.561164
      8          1           0        2.235560    3.382150   -0.657832
      9          6           0        3.249134   -2.384759    0.527780
     10          8           0        2.515416   -3.549904    0.123246
     11          1           0        2.912347   -4.242625    0.726143
     12          6           0        2.777150   -1.077097   -0.086485
     13          8           0        1.564048   -0.768822    0.617020
     14          6           0        0.993177    0.439029    0.094013
     15          8           0       -0.233001    0.405267    0.839419
     16          6           0       -1.293824    0.184285   -0.100482
     17          6           0       -1.692974   -1.260312    0.153196
     18          8           0       -0.769776   -2.203376   -0.410506
     19          1           0        0.159038   -1.934564   -0.157046
     20          6           0       -3.083513   -1.466901   -0.425620
     21          8           0       -3.716025   -2.718663   -0.125472
     22          1           0       -3.429235   -3.352454   -0.845071
     23          6           0       -2.077697    2.584579   -0.181962
     24          8           0       -3.048437    3.551690    0.246070
     25          1           0       -3.004300    3.809335    1.211513
     26          6           0       -2.326351    1.193075    0.376040
     27          8           0       -3.666211    0.888725   -0.036603
     28          6           0       -4.103323   -0.470594    0.103944
     29          8           0       -5.410720   -0.771302   -0.403914
     30          1           0       -6.073451   -0.353793    0.151129
     31          1           0       -2.093896    2.532948   -1.250593
     32          1           0       -1.108019    2.910921    0.131289
     33          1           0       -2.295832    1.238554    1.444637
     34          1           0       -0.982858    0.356987   -1.109627
     35          1           0       -1.737435   -1.419729    1.210319
     36          1           0       -3.025502   -1.362030   -1.488887
     37          1           0       -4.158271   -0.644918    1.158217
     38          1           0        5.756779    0.001071   -0.543746
     39          1           0        3.182044   -2.298879    1.592216
     40          1           0        4.276524   -2.527293    0.264997
     41          1           0        2.567411   -1.220034   -1.125946
     42          1           0        4.239282   -0.025204    1.088742
     43          1           0        3.224825    1.322337   -1.384781
     44          1           0        1.977420    1.940935    1.251119
     45          1           0        0.768093    0.291930   -0.941650
 ---------------------------------------------------------------------

 SCF Done:  E(RB3LYP) =  -1297.97369342     A.U. after   13 cycles

 The electronic state is 1-A.
 Alpha  occ. eigenvalues --  -19.20193 -19.19531 -19.19127 -19.18093 -19.17720
 Alpha  occ. eigenvalues --  -19.16709 -19.15211 -19.14549 -19.14376 -19.14355
 Alpha  occ. eigenvalues --  -19.14244 -10.31228 -10.27887 -10.27667 -10.26993
 Alpha  occ. eigenvalues --  -10.26701 -10.26542 -10.24783 -10.24458 -10.23826
 Alpha  occ. eigenvalues --  -10.23407 -10.23136 -10.22488  -1.11262  -1.08656
 Alpha  occ. eigenvalues --   -1.06406  -1.05917  -1.04676  -1.04195  -1.03208
 Alpha  occ. eigenvalues --   -1.01967  -1.01135  -1.00169  -0.99604  -0.82821
 Alpha  occ. eigenvalues --   -0.81702  -0.78453  -0.77374  -0.71942  -0.69577
 Alpha  occ. eigenvalues --   -0.67874  -0.65331  -0.63849  -0.62982  -0.61986
 Alpha  occ. eigenvalues --   -0.59220  -0.58112  -0.56672  -0.54932  -0.54095
 Alpha  occ. eigenvalues --   -0.53948  -0.53218  -0.52882  -0.51838  -0.50732
 Alpha  occ. eigenvalues --   -0.49932  -0.49872  -0.48985  -0.47461  -0.47005
 Alpha  occ. eigenvalues --   -0.45808  -0.45033  -0.44437  -0.44121  -0.43706
 Alpha  occ. eigenvalues --   -0.42464  -0.41882  -0.41334  -0.40628  -0.40113
 Alpha  occ. eigenvalues --   -0.39398  -0.38504  -0.37803  -0.37319  -0.36397
 Alpha  occ. eigenvalues --   -0.35846  -0.35280  -0.34975  -0.33897  -0.33371
 Alpha  occ. eigenvalues --   -0.32216  -0.32109  -0.31190  -0.30264  -0.29602
 Alpha  occ. eigenvalues --   -0.29517  -0.29049  -0.28346  -0.27155  -0.26214
 Alpha  occ. eigenvalues --   -0.25046
 Alpha virt. eigenvalues --   -0.04787  -0.01596  -0.00559  -0.00360   0.00600
 Alpha virt. eigenvalues --    0.01119   0.01610   0.01974   0.02127   0.03401
 Alpha virt. eigenvalues --    0.03775   0.04016   0.04805   0.05208   0.05606

 Mulliken atomic charges:
              1
     1  O   -0.514148
     2  C   -0.193790
     3  C    0.289361
     4  O   -0.548854
     5  H    0.302984
     6  C   -0.171271
     7  O   -0.546941
     8  H    0.364517
     9  C   -0.358170
    10  O   -0.502311
    11  H    0.327916
    12  C    0.343301
    13  O   -0.277720
    14  C    0.091244
    15  O   -0.210216
    16  C    0.527656
    17  C    0.110990
    18  O   -0.584648
    19  H    0.390612
    20  C   -0.063229
    21  O   -0.494468
    22  H    0.334143
    23  C   -0.212150
    24  O   -0.510257
    25  H    0.321515
    26  C   -0.201689
    27  O   -0.302780
    28  C    0.285812
    29  O   -0.502424
    30  H    0.324281
    31  H    0.146435
    32  H    0.159450
    33  H    0.106148
    34  H    0.109575
    35  H    0.127669
    36  H    0.121276
    37  H    0.104323
    38  H    0.320433
    39  H    0.144978
    40  H    0.155442
    41  H    0.135835
    42  H    0.141763
    43  H    0.146915
    44  H    0.142051
    45  H    0.118439
 Sum of Mulliken atomic charges =   0.00000

 Dipole moment (field-independent basis, Debye):
    X=              8.8466    Y=              0.8241    Z=              2.3134  Tot=              9.1811
 Quadrupole moment (field-independent basis, Debye-Ang):
   XX=           -119.8156   YY=           -147.2870   ZZ=           -134.4418
   XY=             -0.8938   XZ=             -3.3404   YZ=              0.4333

  Exact polarizability: 224.752   2.298 198.414  -1.209   1.197 145.508
 Approx polarizability: 268.435   2.440 257.040  -1.456   3.086 243.916

 ******    7 imaginary frequencies (negative Signs) ******

                     1                      2                      3
                     A                      A                      A
 Frequencies --  -249.4154              -220.3633              -191.4325
 Red. masses --     1.1953                 1.9904                 1.1952
 Frc consts  --     0.0438                 0.0569                 0.0258
 IR Inten    --    87.7131                 2.0384               101.5188
 Raman Activ --     0.6863                 0.0483                 1.0208

                     4                      5                      6
                     A                      A                      A
 Frequencies --  -140.8746               -80.4223               -49.5419
 Red. masses --     2.0931                 5.8534                 5.7764
 Frc consts  --     0.0245                 0.0223                 0.0084
 IR Inten    --    11.2515                 1.5221                 0.4875
 Raman Activ --     0.1947                 0.0825                 0.0263

                     7                      8                      9
                     A                      A                      A
 Frequencies --    -2.0963                33.6567                55.5610
 Red. masses --     5.6876                 7.1837                 4.5561
 Frc consts  --     0.0000                 0.0048                 0.0083
 IR Inten    --     3.0082                 0.1296                 2.0976
 Raman Activ --     0.0552                 0.0622                 0.1169

                    10                     11                     12
                     A                      A                      A
 Frequencies --    67.9247                86.9693               104.2878
 Red. masses --     6.0813                 6.4260                 5.6037
 Frc consts  --     0.0165                 0.0286                 0.0359
 IR Inten    --     0.6706                 3.3446                 4.3165
 Raman Activ --     0.0797                 0.2745                 0.3523

                    13                     14                     15
                     A                      A                      A
 Frequencies --   129.4128               154.2095               184.2266
 Red. masses --     4.9493                 6.5571                 5.8133
 Frc consts  --     0.0488                 0.0919                 0.1162
 IR Inten    --     0.6055                 2.5374                 1.4073
 Raman Activ --     0.0752                 0.4268                 0.8541

                    16                     17                     18
                     A                      A                      A
 Frequencies --   208.0432               220.5362               261.3993
 Red. masses --     4.7691                 6.6227                 4.9953
 Frc consts  --     0.1216                 0.1898                 0.2011
 IR Inten    --     2.9117                 2.5493                 3.5127
 Raman Activ --     0.2920                 1.5951                 0.3214

                    19                     20                     21
                     A                      A                      A
 Frequencies --   277.5768               290.4001               293.3247
 Red. masses --     5.7143                 4.5100                 4.9329
 Frc consts  --     0.2594                 0.2241                 0.2501
 IR Inten    --     1.1627                 8.0004                15.1960
 Raman Activ --     0.2309                 0.6411                 0.6542

                    22                     23                     24
                     A                      A                      A
 Frequencies --   314.2103               324.6258               350.4472
 Red. masses --     5.2904                 6.4767                 6.8299
 Frc consts  --     0.3077                 0.4021                 0.4942
 IR Inten    --     2.9459                 0.4253                 2.1585
 Raman Activ --     1.4830                 3.3094                 0.5996

                    25                     26                     27
                     A                      A                      A
 Frequencies --   354.2768               358.9014               374.1398
 Red. masses --     6.0369                 5.9640                 4.2796
 Frc consts  --     0.4464                 0.4526                 0.3530
 IR Inten    --     9.2812                 4.4754                 3.0760
 Raman Activ --     3.9130                 1.7114                 0.6324

                    28                     29                     30
                     A                      A                      A
 Frequencies --   419.6451               424.4202               438.4788
 Red. masses --     6.4485                 4.1750                 4.3125
 Frc consts  --     0.6691                 0.4431                 0.4885
 IR Inten    --     3.2249                14.5502                 4.5738
 Raman Activ --     4.4662                 5.7683                 0.7218

                    31                     32                     33
                     A                      A                      A
 Frequencies --   443.2114               467.3464               515.3211
 Red. masses --     6.0172                 4.6893                 3.7349
 Frc consts  --     0.6964                 0.6034                 0.5844
 IR Inten    --     0.5156                 6.6361                15.3133
 Raman Activ --     1.1995                 0.3150                 4.5076

                    34                     35                     36
                     A                      A                      A
 Frequencies --   530.7107               542.4540               559.1831
 Red. masses --     3.9525                 3.7526                 6.6883
 Frc consts  --     0.6559                 0.6506                 1.2322
 IR Inten    --    11.9195                 4.4601                 3.2682
 Raman Activ --     3.9108                 2.4218                 2.3576

                    37                     38                     39
                     A                      A                      A
 Frequencies --   590.0283               604.7703               617.1825
 Red. masses --     2.8781                 3.3343                 3.0819
 Frc consts  --     0.5903                 0.7185                 0.6917
 IR Inten    --    32.8798                 8.4670                 3.4432
 Raman Activ --     0.9775                 0.2652                 0.2508

                    40                     41                     42
                     A                      A                      A
 Frequencies --   647.3850               678.1077               687.5037
 Red. masses --     1.1224                 4.3465                 2.6603
 Frc consts  --     0.2771                 1.1776                 0.7409
 IR Inten    --   128.5196                23.4247                16.7423
 Raman Activ --     1.4105                 0.5765                 0.3871

                    43                     44                     45
                     A                      A                      A
 Frequencies --   701.2510               723.3781               731.1916
 Red. masses --     1.1400                 1.0952                 1.1854
 Frc consts  --     0.3303                 0.3377                 0.3734
 IR Inten    --    93.3708                79.7755               104.1037
 Raman Activ --     1.3800                 1.5607                 1.1549

                    46                     47                     48
                     A                      A                      A
 Frequencies --   737.8635               815.8887               844.5918
 Red. masses --     1.0772                 1.0585                 2.5585
 Frc consts  --     0.3455                 0.4151                 1.0753
 IR Inten    --    93.9906                56.7319                 1.6588
 Raman Activ --     1.3948                 0.5654                 1.5336

                    49                     50                     51
                     A                      A                      A
 Frequencies --   881.1920               950.8951               964.3690
 Red. masses --     2.6428                 6.6709                 7.3066
 Frc consts  --     1.2091                 3.5539                 4.0036
 IR Inten    --    22.1587               188.0811               134.8702
 Raman Activ --     5.5678                 2.6603                 0.9969

                    52                     53                     54
                     A                      A                      A
 Frequencies --   980.7993               987.9801              1002.1280
 Red. masses --     6.0215                 5.2000                 6.7977
 Frc consts  --     3.4128                 2.9905                 4.0221
 IR Inten    --    56.4049                53.4010               302.6443
 Raman Activ --     4.9340                 1.8822                 0.7680

                    55                     56                     57
                     A                      A                      A
 Frequencies --  1006.5722              1014.4348              1026.5622
 Red. masses --     4.7754                 5.4912                 3.5586
 Frc consts  --     2.8507                 3.3294                 2.2096
 IR Inten    --   135.8671               122.6397               230.4489
 Raman Activ --     3.9565                 3.4275                 0.7749

                    58                     59                     60
                     A                      A                      A
 Frequencies --  1028.6057              1045.8952              1047.2333
 Red. masses --     3.3046                 2.6952                 3.4138
 Frc consts  --     2.0600                 1.7371                 2.2059
 IR Inten    --   107.8972                43.1285                 7.9941
 Raman Activ --     0.4194                 2.1210                13.4517

                    61                     62                     63
                     A                      A                      A
 Frequencies --  1054.5532              1063.1273              1075.5222
 Red. masses --     3.8373                 3.6766                 3.7171
 Frc consts  --     2.5143                 2.4483                 2.5333
 IR Inten    --   221.0545                 7.4938                21.1099
 Raman Activ --     2.8828                 1.8226                23.5517

                    64                     65                     66
                     A                      A                      A
 Frequencies --  1081.4689              1091.7935              1102.0219
 Red. masses --     4.4991                 3.3140                 2.7933
 Frc consts  --     3.1003                 2.3275                 1.9987
 IR Inten    --    39.4341                17.6106                25.3186
 Raman Activ --     1.6826                 2.5889                 1.6421

                    67                     68                     69
                     A                      A                      A
 Frequencies --  1111.6284              1113.8202              1116.7414
 Red. masses --     1.8849                 2.2223                 2.9810
 Frc consts  --     1.3723                 1.6244                 2.1904
 IR Inten    --     0.2494                 2.5500                 8.1369
 Raman Activ --     5.5184                 5.5884                 3.6751

                    70                     71                     72
                     A                      A                      A
 Frequencies --  1126.5956              1134.8850              1142.5261
 Red. masses --     2.4818                 2.6816                 3.1191
 Frc consts  --     1.8559                 2.0349                 2.3989
 IR Inten    --     0.9699                36.3828                13.2172
 Raman Activ --     5.1228                 1.5027                 1.9923

                    73                     74                     75
                     A                      A                      A
 Frequencies --  1163.7379              1171.1388              1175.2841
 Red. masses --     1.6943                 1.8208                 2.1830
 Frc consts  --     1.3519                 1.4714                 1.7766
 IR Inten    --     9.7051                18.1716                50.0754
 Raman Activ --     1.7429                 0.1661                 3.0506

                    76                     77                     78
                     A                      A                      A
 Frequencies --  1193.4215              1201.8336              1225.1199
 Red. masses --     1.4805                 1.3008                 1.2793
 Frc consts  --     1.2424                 1.1070                 1.1313
 IR Inten    --     5.7986                11.4178                 8.4410
 Raman Activ --     5.0743                 1.6157                 1.6002

                    79                     80                     81
                     A                      A                      A
 Frequencies --  1229.0158              1250.7262              1255.0333
 Red. masses --     1.3450                 1.2081                 1.2045
 Frc consts  --     1.1970                 1.1135                 1.1178
 IR Inten    --    11.6953                 5.6085                 2.7395
 Raman Activ --     1.8474                 2.3999                 2.0472

                    82                     83                     84
                     A                      A                      A
 Frequencies --  1267.2166              1274.3811              1280.4383
 Red. masses --     1.2206                 1.3421                 1.1753
 Frc consts  --     1.1549                 1.2842                 1.1353
 IR Inten    --     4.8231                35.5245                 5.5018
 Raman Activ --     1.3955                 1.2099                 3.5616

                    85                     86                     87
                     A                      A                      A
 Frequencies --  1290.8229              1295.6097              1301.0283
 Red. masses --     1.2467                 1.2058                 1.4012
 Frc consts  --     1.2239                 1.1926                 1.3974
 IR Inten    --     8.1977                 3.1656                 4.8009
 Raman Activ --     2.8566                 3.1900                 1.5484

                    88                     89                     90
                     A                      A                      A
 Frequencies --  1311.5348              1322.2767              1336.1352
 Red. masses --     1.2522                 1.4443                 1.2693
 Frc consts  --     1.2691                 1.4878                 1.3351
 IR Inten    --    54.3754                 9.4943                 3.9468
 Raman Activ --     6.3495                 8.5889                 2.7162

                    91                     92                     93
                     A                      A                      A
 Frequencies --  1342.4028              1343.2643              1348.8876
 Red. masses --     1.4093                 1.3186                 1.2381
 Frc consts  --     1.4963                 1.4017                 1.3273
 IR Inten    --    33.7407                28.2868                 5.7999
 Raman Activ --     6.0705                 2.2187                 2.0231

                    94                     95                     96
                     A                      A                      A
 Frequencies --  1353.7745              1363.5667              1370.0179
 Red. masses --     1.1693                 1.3135                 1.5244
 Frc consts  --     1.2626                 1.4390                 1.6857
 IR Inten    --    31.6278                20.9239                15.2406
 Raman Activ --     3.3626                 0.5511                 1.2997

                    97                     98                     99
                     A                      A                      A
 Frequencies --  1390.9288              1394.1222              1413.4757
 Red. masses --     1.6881                 1.1926                 1.4332
 Frc consts  --     1.9243                 1.3657                 1.6870
 IR Inten    --    11.8745                74.3014                 6.6074
 Raman Activ --     6.1499                 3.3013                 4.3608

                   100                    101                    102
                     A                      A                      A
 Frequencies --  1439.3070              1447.4949              1451.3666
 Red. masses --     1.2105                 1.2979                 1.1302
 Frc consts  --     1.4775                 1.6022                 1.4027
 IR Inten    --    35.3619                14.7325                 9.7338
 Raman Activ --     6.0724                 4.4322                 8.7224

                   103                    104                    105
                     A                      A                      A
 Frequencies --  1463.5899              1464.4608              1477.0052
 Red. masses --     1.3252                 1.0988                 1.3823
 Frc consts  --     1.6725                 1.3884                 1.7767
 IR Inten    --    16.1703                 4.8125                33.0362
 Raman Activ --     2.1873                 3.8316                 4.7264

                   106                    107                    108
                     A                      A                      A
 Frequencies --  1479.1110              1499.3945              3253.2853
 Red. masses --     1.3622                 1.3130                 1.0825
 Frc consts  --     1.7559                 1.7392                 6.7506
 IR Inten    --   113.5265                16.8183                30.6330
 Raman Activ --     4.5341                 1.9993                74.0687

                   109                    110                    111
                     A                      A                      A
 Frequencies --  3259.8575              3269.4810              3272.4756
 Red. masses --     1.0569                 1.0856                 1.0603
 Frc consts  --     6.6175                 6.8369                 6.6900
 IR Inten    --    33.8602                 6.0035                20.4947
 Raman Activ --    81.9444                 5.2473               118.2910

                   112                    113                    114
                     A                      A                      A
 Frequencies --  3276.4258              3279.4380              3282.8494
 Red. masses --     1.0810                 1.0833                 1.0836
 Frc consts  --     6.8369                 6.8645                 6.8808
 IR Inten    --    15.6959                 5.3272                 1.9378
 Raman Activ --    12.0959               142.5701                90.7431

                   115                    116                    117
                     A                      A                      A
 Frequencies --  3286.7468              3290.5304              3296.1499
 Red. masses --     1.0845                 1.0848                 1.0860
 Frc consts  --     6.9023                 6.9203                 6.9516
 IR Inten    --     1.1110                21.0007                 5.0253
 Raman Activ --    74.1356                81.8080                13.6435

                   118                    119                    120
                     A                      A                      A
 Frequencies --  3301.7325              3305.6099              3313.3013
 Red. masses --     1.0865                 1.0867                 1.1045
 Frc consts  --     6.9788                 6.9960                 7.1438
 IR Inten    --    13.4617                67.1541                42.6851
 Raman Activ --    15.7620                 3.2306                35.6150

                   121                    122                    123
                     A                      A                      A
 Frequencies --  3335.4912              3337.0243              3354.4278
 Red. masses --     1.0979                 1.0715                 1.0653
 Frc consts  --     7.1968                 7.0301                 7.0625
 IR Inten    --    39.6307               347.6617                14.5971
 Raman Activ --   101.2459               131.2978               108.5172

                   124                    125                    126
                     A                      A                      A
 Frequencies --  3364.6212              3365.6552              3365.8240
 Red. masses --     1.0669                 1.0726                 1.0660
 Frc consts  --     7.1160                 7.1585                 7.1153
 IR Inten    --    39.2776                26.2834                34.6830
 Raman Activ --    86.3235                72.1117               153.2165

                   127                    128                    129
                     A                      A                      A
 Frequencies --  3377.4000              3878.5603              3889.1745
 Red. masses --     1.0663                 1.0673                 1.0670
 Frc consts  --     7.1661                 9.4595                 9.5089
 IR Inten    --    64.5717                42.7057                66.2196
 Raman Activ --    84.3578               115.2749               126.2514

 - Thermochemistry -
 -------------------
 Temperature   298.150 Kelvin.  Pressure   1.00000 Atm.
 Atom     1 has atomic number  8 and mass  15.99491

 Molecular mass:   342.11621 amu.
 Principal axes and moments of inertia in atomic units:
                           1         2         3
     Eigenvalues --  4647.59838********************
           X            0.99999  -0.00429  -0.00049
           Y            0.00429   0.99999  -0.00195
           Z            0.00050   0.00194   1.00000
 This molecule is an asymmetric top.
 Rotational symmetry number  1.
 Warning -- assumption of classical behavior for rotation
           may cause significant error
 Rotational temperatures (Kelvin)      0.01864     0.00736     0.00545
 Rotational constants (GHZ):           0.38832     0.15341     0.11361
    7 imaginary frequencies ignored.
 Zero-point vibrational energy     974109.4 (Joules/Mol)
                                  232.81774 (Kcal/Mol)
 Warning -- explicit consideration of  32 degrees of freedom as
           vibrations may cause significant error
 Vibrational temperatures:     48.42    79.94    97.73   125.13   150.05
          (Kelvin)            186.20   221.87   265.06   299.33   317.30
                              376.09   399.37   417.82   422.03   452.08
                              467.06   504.21   509.72   516.38   538.30
                              603.77   610.65   630.87   637.68   672.41
                              741.43   763.57   780.47   804.54   848.92
                              870.13   887.99   931.44   975.64   989.16
                             1008.94  1040.78  1052.02  1061.62  1173.88
                             1215.18  1267.84  1368.12  1387.51  1411.15
                             1421.48  1441.84  1448.23  1459.54  1476.99
                             1479.93  1504.81  1506.73  1517.26  1529.60
                             1547.43  1555.99  1570.85  1585.56  1599.38
                             1602.54  1606.74  1620.92  1632.84  1643.84
                             1674.36  1685.01  1690.97  1717.07  1729.17
                             1762.67  1768.28  1799.51  1805.71  1823.24
                             1833.55  1842.26  1857.20  1864.09  1871.89
                             1887.00  1902.46  1922.40  1931.42  1932.66
                             1940.75  1947.78  1961.87  1971.15  2001.23
                             2005.83  2033.67  2070.84  2082.62  2088.19
                             2105.78  2107.03  2125.08  2128.11  2157.29
                             4680.75  4690.20  4704.05  4708.36  4714.04
                             4718.37  4723.28  4728.89  4734.33  4742.42
                             4750.45  4756.03  4767.10  4799.02  4801.23
                             4826.27  4840.93  4842.42  4842.66  4859.32
                             5580.38  5595.65

 Zero-point correction=                           0.371019 (Hartree/Particle)
 Thermal correction to Energy=                    0.389482
 Thermal correction to Enthalpy=                  0.390426
 Thermal correction to Gibbs Free Energy=         0.324725
 Sum of electronic and zero-point Energies=          -1297.602675
 Sum of electronic and thermal Energies=             -1297.584211
 Sum of electronic and thermal Enthalpies=           -1297.583267
 Sum of electronic and thermal Free Energies=        -1297.648968

                     E (Thermal)             CV                S
                      KCal/Mol        Cal/Mol-Kelvin    Cal/Mol-Kelvin
 Total                  244.404             76.005            138.280
 Electronic               0.000              0.000              0.000
 Translational            0.889              2.981             43.384
 Rotational               0.889              2.981             35.117
 Vibrational            242.626             70.044             59.778
 Vibration     1          0.594              1.983              5.601
 Vibration     2          0.596              1.975              4.609
 Vibration     3          0.598              1.970              4.213
 Vibration     4          0.601              1.958              3.727
 Vibration     5          0.605              1.946              3.373
 Vibration     6          0.612              1.924              2.955
 Vibration     7          0.620              1.898              2.620
 Vibration     8          0.631              1.861              2.285
 Vibration     9          0.641              1.828              2.061
 Vibration    10          0.647              1.810              1.955
 Vibration    11          0.669              1.743              1.652
 Vibration    12          0.679              1.715              1.549
 Vibration    13          0.686              1.692              1.472
 Vibration    14          0.688              1.686              1.455
 Vibration    15          0.702              1.647              1.340
 Vibration    16          0.709              1.626              1.287
 Vibration    17          0.727              1.574              1.164
 Vibration    18          0.730              1.566              1.147
 Vibration    19          0.734              1.557              1.127
 Vibration    20          0.745              1.525              1.063
 Vibration    21          0.782              1.428              0.893
 Vibration    22          0.786              1.417              0.877
 Vibration    23          0.799              1.386              0.831
 Vibration    24          0.803              1.376              0.817
 Vibration    25          0.825              1.322              0.745
 Vibration    26          0.870              1.216              0.621
 Vibration    27          0.886              1.182              0.586
 Vibration    28          0.898              1.156              0.560
 Vibration    29          0.915              1.120              0.525
 Vibration    30          0.947              1.053              0.467
 Vibration    31          0.963              1.022              0.442
 Vibration    32          0.977              0.996              0.421

 Normal termination of Gaussian 09 at Mon Mar 28 10:19:41 2016.
