 Gaussian 09, Revision B.01,
 Gaussian 09:  EM64L-G09RevB.01 12-Aug-2010

 -------------------------------------------------
 # freq=raman b3lyp/6-31+g(2d,p) geom=connectivity
 -------------------------------------------------

 -----------------
 320 5195/5195.com
 -----------------
 Symbolic Z-matrix:
 Charge =  0 Multiplicity = 1

                         Standard orientation:
 ---------------------------------------------------------------------
 Center     Atomic      Atomic             Coordinates (Angstroms)
 Number     Number       Type             X           Y           Z
 ---------------------------------------------------------------------
      1          8           0        4.949375   -0.583182   -0.336123
      2          6           0        3.708446   -0.146355    0.237743
      3          6           0        3.201972    1.207563   -0.230856
      4          8           0        4.190387    2.239780   -0.106959
      5          1           0        5.019679    1.816930   -0.472944
      6          6           0        1.828543    1.539620    0.330245
      7          8           0        1.477798    2.872912   -0.068097
      8          1           0        0.519809    2.830117    0.215294
      9          6           0        2.796415   -2.551713    0.246152
     10          8           0        3.918935   -3.308259   -0.231037
     11          1           0        3.795752   -4.272510    0.000706
     12          6           0        2.634819   -1.117023   -0.228804
     13          8           0        1.360462   -0.796986    0.348462
     14          6           0        0.914370    0.449639   -0.205501
     15          8           0       -0.299243    0.557469    0.552908
     16          6           0       -1.438718    0.248891   -0.262893
     17          6           0       -1.910002   -1.113667    0.217353
     18          8           0       -1.048594   -2.142284   -0.293341
     19          1           0       -0.168120   -1.928372    0.130116
     20          6           0       -3.332226   -1.507691   -0.143556
     21          8           0       -3.765492   -2.621171    0.649798
     22          1           0       -4.582358   -2.961602    0.182569
     23          6           0       -2.207134    2.682311   -0.249219
     24          8           0       -1.168458    3.359247    0.473923
     25          1           0       -1.258241    4.346201    0.607516
     26          6           0       -2.519418    1.244019    0.127864
     27          8           0       -3.772379    0.876818   -0.468357
     28          6           0       -4.283021   -0.344327    0.086871
     29          8           0       -5.503225   -0.697344   -0.582389
     30          1           0       -6.157986   -0.965622    0.066390
     31          1           0        5.526929   -0.907048    0.358962
     32          1           0        1.909264   -3.083771   -0.027302
     33          1           0        2.850590   -2.533499    1.314624
     34          1           0        2.564418   -1.094601   -1.296250
     35          1           0        3.774192   -0.161938    1.305607
     36          1           0        3.049583    1.097886   -1.284254
     37          1           0        1.858490    1.484596    1.398410
     38          1           0        0.777962    0.445877   -1.266764
     39          1           0       -3.106338    3.250492   -0.133021
     40          1           0       -1.942050    2.695476   -1.285779
     41          1           0       -2.635219    1.201256    1.190719
     42          1           0       -1.216343    0.266022   -1.309390
     43          1           0       -1.832657   -1.123648    1.284508
     44          1           0       -3.364627   -1.783637   -1.176854
     45          1           0       -4.463539   -0.222199    1.134439
 ---------------------------------------------------------------------

 SCF Done:  E(RB3LYP) =  -1297.98440032     A.U. after   13 cycles

 The electronic state is 1-A.
 Alpha  occ. eigenvalues --  -19.18700 -19.18270 -19.17970 -19.17927 -19.17877
 Alpha  occ. eigenvalues --  -19.16969 -19.16529 -19.15947 -19.14759 -19.14187
 Alpha  occ. eigenvalues --  -19.14089 -10.30640 -10.30275 -10.25972 -10.25442
 Alpha  occ. eigenvalues --  -10.25277 -10.25139 -10.25040 -10.24225 -10.24223
 Alpha  occ. eigenvalues --  -10.23901 -10.23834 -10.23810  -1.11067  -1.08826
 Alpha  occ. eigenvalues --   -1.05358  -1.04800  -1.04030  -1.03860  -1.02932
 Alpha  occ. eigenvalues --   -1.02366  -1.02133  -1.01045  -1.00444  -0.82141
 Alpha  occ. eigenvalues --   -0.80608  -0.78988  -0.78049  -0.71886  -0.69823
 Alpha  occ. eigenvalues --   -0.66961  -0.65155  -0.63532  -0.62033  -0.61355
 Alpha  occ. eigenvalues --   -0.60444  -0.56497  -0.55951  -0.55260  -0.53973
 Alpha  occ. eigenvalues --   -0.53884  -0.53254  -0.53015  -0.52255  -0.50940
 Alpha  occ. eigenvalues --   -0.50435  -0.49815  -0.49206  -0.47991  -0.46585
 Alpha  occ. eigenvalues --   -0.46208  -0.45264  -0.43757  -0.43672  -0.42910
 Alpha  occ. eigenvalues --   -0.42619  -0.42211  -0.40978  -0.40081  -0.39878
 Alpha  occ. eigenvalues --   -0.38824  -0.38179  -0.37378  -0.37208  -0.36166
 Alpha  occ. eigenvalues --   -0.35922  -0.35168  -0.34797  -0.34747  -0.34083
 Alpha  occ. eigenvalues --   -0.32823  -0.31486  -0.30993  -0.30670  -0.29924
 Alpha  occ. eigenvalues --   -0.29443  -0.28489  -0.27949  -0.27390  -0.26713
 Alpha  occ. eigenvalues --   -0.26350
 Alpha virt. eigenvalues --   -0.01861  -0.01760  -0.01641  -0.00035   0.00204
 Alpha virt. eigenvalues --    0.00779   0.01905   0.02120   0.02835   0.03137
 Alpha virt. eigenvalues --    0.03671   0.04298   0.05002   0.05392   0.05538

 Mulliken atomic charges:
              1
     1  O   -0.533623
     2  C    0.020231
     3  C    0.137537
     4  O   -0.562189
     5  H    0.343358
     6  C   -0.036306
     7  O   -0.550584
     8  H    0.410374
     9  C   -0.216945
    10  O   -0.547893
    11  H    0.336594
    12  C    0.107401
    13  O   -0.225240
    14  C   -0.046719
    15  O   -0.181062
    16  C    0.459226
    17  C    0.001631
    18  O   -0.550771
    19  H    0.362733
    20  C    0.144938
    21  O   -0.541738
    22  H    0.334877
    23  C   -0.301383
    24  O   -0.573103
    25  H    0.368236
    26  C    0.043758
    27  O   -0.290854
    28  C    0.146364
    29  O   -0.561820
    30  H    0.339486
    31  H    0.339816
    32  H    0.141459
    33  H    0.137936
    34  H    0.117261
    35  H    0.116316
    36  H    0.100248
    37  H    0.129026
    38  H    0.143167
    39  H    0.148037
    40  H    0.155265
    41  H    0.121891
    42  H    0.112788
    43  H    0.131583
    44  H    0.137741
    45  H    0.130952
 Sum of Mulliken atomic charges =   0.00000

 Dipole moment (field-independent basis, Debye):
    X=             -2.5076    Y=             -0.8824    Z=              2.1154  Tot=              3.3973
 Quadrupole moment (field-independent basis, Debye-Ang):
   XX=           -126.2465   YY=           -135.0743   ZZ=           -138.5961
   XY=            -14.9756   XZ=             -0.2008   YZ=             -1.4004

  Exact polarizability: 229.138   1.929 197.814  -0.238  -0.646 142.744
 Approx polarizability: 269.218   2.483 257.919  -0.518  -0.257 240.665

 ******    6 imaginary frequencies (negative Signs) ******

                     1                      2                      3
                     A                      A                      A
 Frequencies --  -284.6943              -280.6088              -261.6572
 Red. masses --     1.3211                 1.1977                 1.7912
 Frc consts  --     0.0631                 0.0556                 0.0723
 IR Inten    --    63.4507               142.1648                 5.4870
 Raman Activ --     0.3888                 1.2468                 0.0600

                     4                      5                      6
                     A                      A                      A
 Frequencies --  -247.3821               -64.1868               -42.7420
 Red. masses --     1.4244                 6.6642                 6.2302
 Frc consts  --     0.0514                 0.0162                 0.0067
 IR Inten    --    32.3957                 0.5893                 0.1431
 Raman Activ --     0.4396                 0.0242                 0.0195

                     7                      8                      9
                     A                      A                      A
 Frequencies --    41.0701                61.3353                75.3021
 Red. masses --     6.7878                 6.2812                 6.2510
 Frc consts  --     0.0067                 0.0139                 0.0209
 IR Inten    --     0.1965                 0.8653                 2.0337
 Raman Activ --     0.0340                 0.0462                 0.1822

                    10                     11                     12
                     A                      A                      A
 Frequencies --    96.4215               114.7216               131.8197
 Red. masses --     6.6816                 6.3222                 5.4046
 Frc consts  --     0.0366                 0.0490                 0.0553
 IR Inten    --     1.5935                 0.6534                 1.2891
 Raman Activ --     0.0973                 0.0310                 0.0833

                    13                     14                     15
                     A                      A                      A
 Frequencies --   152.7267               188.5052               194.8336
 Red. masses --     6.4438                 6.2474                 6.2054
 Frc consts  --     0.0886                 0.1308                 0.1388
 IR Inten    --     3.9569                 0.6921                 3.0028
 Raman Activ --     0.2775                 0.2386                 0.3035

                    16                     17                     18
                     A                      A                      A
 Frequencies --   207.4101               233.7938               264.3716
 Red. masses --     7.1980                 6.0615                 5.7376
 Frc consts  --     0.1824                 0.1952                 0.2363
 IR Inten    --     0.7654                 1.3566                 6.9727
 Raman Activ --     1.9109                 0.9283                 0.2018

                    19                     20                     21
                     A                      A                      A
 Frequencies --   280.2196               290.9351               295.3716
 Red. masses --     4.4019                 5.9461                 4.7219
 Frc consts  --     0.2037                 0.2965                 0.2427
 IR Inten    --    12.9812                 1.2847                 1.2676
 Raman Activ --     0.6110                 0.1664                 0.4493

                    22                     23                     24
                     A                      A                      A
 Frequencies --   307.6873               312.0397               329.6863
 Red. masses --     5.4898                 5.1375                 6.1792
 Frc consts  --     0.3062                 0.2947                 0.3957
 IR Inten    --     1.0274                 7.1787                 2.6069
 Raman Activ --     2.2761                 0.1939                 1.4438

                    25                     26                     27
                     A                      A                      A
 Frequencies --   343.0434               354.6155               383.5314
 Red. masses --     7.0560                 4.8044                 6.7825
 Frc consts  --     0.4892                 0.3560                 0.5878
 IR Inten    --    10.9543                 1.9921                 1.3177
 Raman Activ --     4.5879                 0.3892                 2.1886

                    28                     29                     30
                     A                      A                      A
 Frequencies --   404.9247               430.9175               439.0581
 Red. masses --     4.9880                 4.7941                 5.4058
 Frc consts  --     0.4819                 0.5245                 0.6140
 IR Inten    --    20.3624                 6.2669                10.3463
 Raman Activ --     2.2135                 3.1244                 1.6567

                    31                     32                     33
                     A                      A                      A
 Frequencies --   447.6420               491.9272               502.1614
 Red. masses --     4.7964                 4.9383                 3.7741
 Frc consts  --     0.5663                 0.7041                 0.5607
 IR Inten    --     3.1225                 5.7302                16.5653
 Raman Activ --     5.7480                 2.6978                 1.6690

                    34                     35                     36
                     A                      A                      A
 Frequencies --   521.8942               539.3318               572.2966
 Red. masses --     3.7892                 3.1292                 4.3774
 Frc consts  --     0.6081                 0.5363                 0.8447
 IR Inten    --     7.2557                 4.2375                11.5926
 Raman Activ --     1.6786                 2.8119                 2.0359

                    37                     38                     39
                     A                      A                      A
 Frequencies --   584.4810               600.7843               621.5686
 Red. masses --     3.2294                 4.4179                 1.2467
 Frc consts  --     0.6500                 0.9395                 0.2838
 IR Inten    --     8.5122                17.2047               106.7675
 Raman Activ --     1.3780                 0.5655                 1.1239

                    40                     41                     42
                     A                      A                      A
 Frequencies --   633.3103               646.3477               698.8932
 Red. masses --     4.0659                 3.2917                 1.0724
 Frc consts  --     0.9608                 0.8102                 0.3086
 IR Inten    --     9.8415                52.9407               110.0550
 Raman Activ --     0.3360                 1.1970                 1.8192

                    43                     44                     45
                     A                      A                      A
 Frequencies --   714.3457               758.8848               760.2936
 Red. masses --     5.4598                 1.0849                 1.0961
 Frc consts  --     1.6415                 0.3681                 0.3733
 IR Inten    --    10.4742                94.0666                83.0142
 Raman Activ --     1.3609                 1.6477                 1.3490

                    46                     47                     48
                     A                      A                      A
 Frequencies --   823.7331               853.3099               855.5397
 Red. masses --     1.1054                 1.7155                 1.6273
 Frc consts  --     0.4419                 0.7359                 0.7018
 IR Inten    --   125.6672                 7.6707                 3.1575
 Raman Activ --     2.6765                 1.1283                 0.3712

                    49                     50                     51
                     A                      A                      A
 Frequencies --   895.8288               930.0285               956.3682
 Red. masses --     1.1783                 5.3621                 4.0789
 Frc consts  --     0.5571                 2.7326                 2.1981
 IR Inten    --    47.2236               115.2353                84.6262
 Raman Activ --     0.5179                 3.1405                 0.5785

                    52                     53                     54
                     A                      A                      A
 Frequencies --   979.2386               987.4243               993.2567
 Red. masses --     6.1443                 3.9612                 6.0909
 Frc consts  --     3.4713                 2.2755                 3.5404
 IR Inten    --    13.6847               103.0740                84.7836
 Raman Activ --     2.9287                 0.7412                 1.7078

                    55                     56                     57
                     A                      A                      A
 Frequencies --  1007.9933              1014.2501              1019.4350
 Red. masses --     5.4400                 7.3265                 5.3138
 Frc consts  --     3.2566                 4.4405                 3.2537
 IR Inten    --    45.5863                69.1838               336.1188
 Raman Activ --     2.7211                 3.5447                 1.6296

                    58                     59                     60
                     A                      A                      A
 Frequencies --  1037.6257              1048.1521              1064.5707
 Red. masses --     8.2465                 5.2618                 4.2801
 Frc consts  --     5.2312                 3.4059                 2.8580
 IR Inten    --   335.0954               117.8178                39.1900
 Raman Activ --     1.0889                 4.8021                 7.6574

                    61                     62                     63
                     A                      A                      A
 Frequencies --  1071.8103              1078.7103              1083.0576
 Red. masses --     4.2555                 3.4582                 2.9759
 Frc consts  --     2.8803                 2.3709                 2.0567
 IR Inten    --    50.3171                44.5541                40.4402
 Raman Activ --    32.7685                 4.8713                 5.1130

                    64                     65                     66
                     A                      A                      A
 Frequencies --  1089.8705              1098.5895              1105.7520
 Red. masses --     3.6760                 3.6204                 2.4137
 Frc consts  --     2.5727                 2.5744                 1.7388
 IR Inten    --    43.9246                93.6135                31.9203
 Raman Activ --     3.0236                 1.5751                 5.7622

                    67                     68                     69
                     A                      A                      A
 Frequencies --  1120.5735              1122.5381              1128.3632
 Red. masses --     2.8875                 2.0685                 2.1264
 Frc consts  --     2.1362                 1.5357                 1.5951
 IR Inten    --    16.1049                35.2486                35.3835
 Raman Activ --     4.8252                 2.3506                 9.0455

                    70                     71                     72
                     A                      A                      A
 Frequencies --  1142.6462              1145.9109              1148.5309
 Red. masses --     1.6646                 2.2106                 2.1817
 Frc consts  --     1.2805                 1.7103                 1.6956
 IR Inten    --     1.3178                19.5837                10.7384
 Raman Activ --     3.4095                 2.9522                 3.8227

                    73                     74                     75
                     A                      A                      A
 Frequencies --  1162.3819              1169.6716              1175.5292
 Red. masses --     2.0003                 1.6191                 1.7372
 Frc consts  --     1.5923                 1.3051                 1.4144
 IR Inten    --    12.1518                13.0430                36.1739
 Raman Activ --     4.3226                 2.0847                 0.3860

                    76                     77                     78
                     A                      A                      A
 Frequencies --  1199.8896              1211.4124              1215.6570
 Red. masses --     1.4773                 1.4728                 1.3832
 Frc consts  --     1.2532                 1.2735                 1.2044
 IR Inten    --     5.0685                26.8948                 5.5328
 Raman Activ --     3.9236                 1.3033                 1.3069

                    79                     80                     81
                     A                      A                      A
 Frequencies --  1233.9160              1244.6624              1250.7966
 Red. masses --     1.2725                 1.2630                 1.1766
 Frc consts  --     1.1415                 1.1528                 1.0846
 IR Inten    --     3.1867                27.9412                10.4577
 Raman Activ --     0.5373                 1.1235                 1.0580

                    82                     83                     84
                     A                      A                      A
 Frequencies --  1259.6756              1274.2676              1283.1018
 Red. masses --     1.2586                 1.2413                 1.2881
 Frc consts  --     1.1766                 1.1876                 1.2495
 IR Inten    --    12.1698                 9.8699                 0.2357
 Raman Activ --     4.7544                 6.1859                 1.8166

                    85                     86                     87
                     A                      A                      A
 Frequencies --  1284.9409              1293.4236              1305.7180
 Red. masses --     1.3150                 1.3822                 1.2909
 Frc consts  --     1.2792                 1.3624                 1.2967
 IR Inten    --     1.7952                29.5390                 9.3779
 Raman Activ --     3.2499                 0.6976                 1.6043

                    88                     89                     90
                     A                      A                      A
 Frequencies --  1312.7216              1324.6778              1328.4702
 Red. masses --     1.3557                 1.3288                 1.2477
 Frc consts  --     1.3765                 1.3738                 1.2974
 IR Inten    --     4.8889                38.3899                78.5203
 Raman Activ --     4.9133                 8.4540                 3.3659

                    91                     92                     93
                     A                      A                      A
 Frequencies --  1331.4798              1335.5989              1342.8664
 Red. masses --     1.2534                 1.2570                 1.2962
 Frc consts  --     1.3092                 1.3211                 1.3772
 IR Inten    --    18.4472                27.0359                12.5439
 Raman Activ --     4.8359                 4.0548                 2.5714

                    94                     95                     96
                     A                      A                      A
 Frequencies --  1353.0941              1367.8102              1372.8530
 Red. masses --     1.5320                 1.3985                 1.6021
 Frc consts  --     1.6526                 1.5416                 1.7790
 IR Inten    --     2.6304                13.3932                 3.5280
 Raman Activ --    12.8593                 3.4715                 3.9744

                    97                     98                     99
                     A                      A                      A
 Frequencies --  1383.0625              1388.6646              1394.5054
 Red. masses --     1.3050                 1.5481                 1.2755
 Frc consts  --     1.4708                 1.7589                 1.4614
 IR Inten    --    29.6367                 4.5300                10.3791
 Raman Activ --     4.7504                 6.2077                 1.8607

                   100                    101                    102
                     A                      A                      A
 Frequencies --  1420.3493              1454.1361              1463.0788
 Red. masses --     1.4681                 1.3323                 1.3538
 Frc consts  --     1.7450                 1.6598                 1.7074
 IR Inten    --     8.1117                33.5334                15.2591
 Raman Activ --     0.4039                 2.2527                 1.9785

                   103                    104                    105
                     A                      A                      A
 Frequencies --  1471.3523              1472.1036              1479.0913
 Red. masses --     1.1127                 1.0808                 1.3401
 Frc consts  --     1.4193                 1.3800                 1.7273
 IR Inten    --     3.3677                 6.2664                38.5117
 Raman Activ --     2.9192                 4.4477                 2.3690

                   106                    107                    108
                     A                      A                      A
 Frequencies --  1528.2872              1544.4310              3250.8522
 Red. masses --     1.2733                 1.2450                 1.0805
 Frc consts  --     1.7522                 1.7497                 6.7275
 IR Inten    --    37.4283                65.0477                19.8627
 Raman Activ --     2.0277                 0.5504                39.3817

                   109                    110                    111
                     A                      A                      A
 Frequencies --  3255.4668              3259.7150              3274.5370
 Red. masses --     1.0575                 1.0596                 1.0823
 Frc consts  --     6.6035                 6.6335                 6.8377
 IR Inten    --    30.9067               105.2768                46.9436
 Raman Activ --   111.2127                65.5220                 4.9721

                   112                    113                    114
                     A                      A                      A
 Frequencies --  3278.2140              3280.6463              3281.0822
 Red. masses --     1.0721                 1.0842                 1.0821
 Frc consts  --     6.7883                 6.8752                 6.8635
 IR Inten    --   275.4386                 3.8297                80.8888
 Raman Activ --   178.3216                70.0199                89.8528

                   115                    116                    117
                     A                      A                      A
 Frequencies --  3282.3079              3288.9549              3294.8197
 Red. masses --     1.0842                 1.0816                 1.0876
 Frc consts  --     6.8822                 6.8936                 6.9566
 IR Inten    --    18.5378                62.9582                20.9537
 Raman Activ --   175.4260                65.3674                29.1764

                   118                    119                    120
                     A                      A                      A
 Frequencies --  3297.7622              3303.0365              3309.6354
 Red. masses --     1.0871                 1.0878                 1.0907
 Frc consts  --     6.9655                 6.9924                 7.0390
 IR Inten    --    50.2778                26.2929                75.2692
 Raman Activ --    10.4677                 5.4846                38.7889

                   121                    122                    123
                     A                      A                      A
 Frequencies --  3311.6729              3317.2186              3319.2707
 Red. masses --     1.0958                 1.0743                 1.1020
 Frc consts  --     7.0809                 6.9651                 7.1533
 IR Inten    --    85.2067               387.9144                59.4639
 Raman Activ --     4.2419               167.5392                38.0201

                   124                    125                    126
                     A                      A                      A
 Frequencies --  3360.1851              3360.7369              3374.2031
 Red. masses --     1.0656                 1.0654                 1.0691
 Frc consts  --     7.0888                 7.0895                 7.1714
 IR Inten    --    34.7159                37.1435                86.9260
 Raman Activ --   122.2242               100.6666               162.5397

                   127                    128                    129
                     A                      A                      A
 Frequencies --  3374.7214              3892.8790              3893.1116
 Red. masses --     1.0672                 1.0675                 1.0673
 Frc consts  --     7.1610                 9.5317                 9.5312
 IR Inten    --    38.9300               106.3301                57.7776
 Raman Activ --   182.2463                60.6273               128.1700

 - Thermochemistry -
 -------------------
 Temperature   298.150 Kelvin.  Pressure   1.00000 Atm.
 Atom     1 has atomic number  8 and mass  15.99491

 Molecular mass:   342.11621 amu.
 Principal axes and moments of inertia in atomic units:
                           1         2         3
     Eigenvalues --  4459.29729********************
           X            0.99997  -0.00768  -0.00042
           Y            0.00768   0.99997  -0.00275
           Z            0.00044   0.00274   1.00000
 This molecule is an asymmetric top.
 Rotational symmetry number  1.
 Warning -- assumption of classical behavior for rotation
           may cause significant error
 Rotational temperatures (Kelvin)      0.01942     0.00729     0.00544
 Rotational constants (GHZ):           0.40471     0.15187     0.11330
    6 imaginary frequencies ignored.
 Zero-point vibrational energy     976908.3 (Joules/Mol)
                                  233.48669 (Kcal/Mol)
 Warning -- explicit consideration of  32 degrees of freedom as
           vibrations may cause significant error
 Vibrational temperatures:     59.09    88.25   108.34   138.73   165.06
          (Kelvin)            189.66   219.74   271.22   280.32   298.42
                              336.38   380.37   403.17   418.59   424.97
                              442.69   448.95   474.34   493.56   510.21
                              551.82   582.60   619.99   631.71   644.06
                              707.77   722.50   750.89   775.98   823.41
                              840.94   864.39   894.30   911.19   929.95
                             1005.55  1027.78  1091.86  1093.89  1185.17
                             1227.72  1230.93  1288.90  1338.10  1376.00
                             1408.90  1420.68  1429.07  1450.28  1459.28
                             1466.74  1492.91  1508.06  1531.68  1542.09
                             1552.02  1558.28  1568.08  1580.62  1590.93
                             1612.25  1615.08  1623.46  1644.01  1648.71
                             1652.48  1672.41  1682.89  1691.32  1726.37
                             1742.95  1749.06  1775.33  1790.79  1799.62
                             1812.39  1833.38  1846.10  1848.74  1860.95
                             1878.63  1888.71  1905.91  1911.37  1915.70
                             1921.63  1932.08  1946.80  1967.97  1975.23
                             1989.92  1997.98  2006.38  2043.56  2092.17
                             2105.04  2116.95  2118.03  2128.08  2198.86
                             2222.09  4677.25  4683.88  4690.00  4711.32
                             4716.61  4720.11  4720.74  4722.50  4732.07
                             4740.50  4744.74  4752.33  4761.82  4764.75
                             4772.73  4775.68  4834.55  4835.34  4854.72
                             4855.47  5600.98  5601.31

 Zero-point correction=                           0.372085 (Hartree/Particle)
 Thermal correction to Energy=                    0.390989
 Thermal correction to Enthalpy=                  0.391933
 Thermal correction to Gibbs Free Energy=         0.325844
 Sum of electronic and zero-point Energies=          -1297.612316
 Sum of electronic and thermal Energies=             -1297.593412
 Sum of electronic and thermal Enthalpies=           -1297.592468
 Sum of electronic and thermal Free Energies=        -1297.658556

                     E (Thermal)             CV                S
                      KCal/Mol        Cal/Mol-Kelvin    Cal/Mol-Kelvin
 Total                  245.349             77.478            139.096
 Electronic               0.000              0.000              0.000
 Translational            0.889              2.981             43.384
 Rotational               0.889              2.981             35.089
 Vibrational            243.572             71.516             60.622
 Vibration     1          0.594              1.981              5.207
 Vibration     2          0.597              1.973              4.414
 Vibration     3          0.599              1.965              4.010
 Vibration     4          0.603              1.952              3.525
 Vibration     5          0.608              1.937              3.187
 Vibration     6          0.612              1.922              2.919
 Vibration     7          0.619              1.900              2.638
 Vibration     8          0.633              1.856              2.242
 Vibration     9          0.636              1.847              2.181
 Vibration    10          0.641              1.829              2.066
 Vibration    11          0.654              1.789              1.850
 Vibration    12          0.671              1.738              1.633
 Vibration    13          0.680              1.710              1.532
 Vibration    14          0.687              1.691              1.469
 Vibration    15          0.690              1.682              1.443
 Vibration    16          0.698              1.659              1.375
 Vibration    17          0.700              1.651              1.351
 Vibration    18          0.712              1.616              1.262
 Vibration    19          0.722              1.589              1.198
 Vibration    20          0.730              1.566              1.146
 Vibration    21          0.753              1.505              1.025
 Vibration    22          0.770              1.459              0.945
 Vibration    23          0.792              1.403              0.856
 Vibration    24          0.799              1.385              0.830
 Vibration    25          0.807              1.366              0.803
 Vibration    26          0.848              1.268              0.679
 Vibration    27          0.858              1.245              0.653
 Vibration    28          0.877              1.202              0.606
 Vibration    29          0.894              1.163              0.567
 Vibration    30          0.928              1.091              0.500
 Vibration    31          0.941              1.065              0.477
 Vibration    32          0.959              1.030              0.448

 Normal termination of Gaussian 09 at Thu Mar 24 13:17:03 2016.
