 Gaussian 09, Revision B.01,
 Gaussian 09:  EM64L-G09RevB.01 12-Aug-2010

 -------------------------------------------------
 # freq=raman b3lyp/6-31+g(2d,p) geom=connectivity
 -------------------------------------------------

 -----------------
 473 5820/5820.com
 -----------------
 Symbolic Z-matrix:
 Charge =  0 Multiplicity = 1

                         Standard orientation:
 ---------------------------------------------------------------------
 Center     Atomic      Atomic             Coordinates (Angstroms)
 Number     Number       Type             X           Y           Z
 ---------------------------------------------------------------------
      1          8           0       -5.055693   -0.310892    0.497410
      2          6           0       -3.760949    0.003776   -0.035287
      3          6           0       -3.235938    1.356972    0.415440
      4          8           0       -4.053097    2.354276   -0.215060
      5          1           0       -5.003329    2.098345   -0.038133
      6          6           0       -1.808654    1.614328   -0.039866
      7          8           0       -1.138603    2.812752    0.378893
      8          1           0       -0.341097    3.045166   -0.177101
      9          6           0       -3.024609   -2.592764   -0.135607
     10          8           0       -4.256353   -3.294968    0.089411
     11          1           0       -4.098188   -4.275479    0.203748
     12          6           0       -2.813690   -1.144671    0.275189
     13          8           0       -1.537612   -0.815558   -0.291507
     14          6           0       -0.952633    0.387685    0.226768
     15          8           0        0.261017    0.434292   -0.538241
     16          6           0        1.548671    0.155830    0.029132
     17          6           0        2.014365   -1.196371   -0.485901
     18          8           0        1.090025   -2.294204   -0.485287
     19          1           0        0.207295   -1.958188   -0.812879
     20          6           0        3.317023   -1.461025    0.250428
     21          8           0        3.777249   -2.732748   -0.230852
     22          1           0        4.686284   -3.053994    0.032897
     23          6           0        2.321427    2.631953    0.051214
     24          8           0        1.203897    3.289885   -0.564512
     25          1           0        1.515420    4.232337   -0.682661
     26          6           0        2.610657    1.186168   -0.319935
     27          8           0        3.853156    0.870382    0.323812
     28          6           0        4.391522   -0.417005   -0.010105
     29          8           0        5.430999   -0.617705    0.958792
     30          1           0        6.240844   -0.873148    0.511020
     31          1           0        4.760857   -0.453977   -1.013661
     32          1           0        3.127117   -1.524048    1.301553
     33          1           0        2.278593   -1.044538   -1.511586
     34          1           0        1.453059    0.106091    1.093690
     35          1           0        2.768000    1.145460   -1.377520
     36          1           0        3.196751    3.203843   -0.176049
     37          1           0        2.173076    2.668852    1.110237
     38          1           0       -5.647455   -0.549537   -0.219853
     39          1           0       -2.257977   -3.160864    0.348580
     40          1           0       -2.834939   -2.641057   -1.187555
     41          1           0       -2.691308   -1.150051    1.338153
     42          1           0       -3.862023    0.047917   -1.099587
     43          1           0       -3.304958    1.443657    1.479687
     44          1           0       -1.869114    1.691665   -1.105353
     45          1           0       -0.739933    0.288206    1.270685
 ---------------------------------------------------------------------

 SCF Done:  E(RB3LYP) =  -1297.98035481     A.U. after   13 cycles

 The electronic state is 1-A.
 Alpha  occ. eigenvalues --  -19.19347 -19.18270 -19.17886 -19.17130 -19.16772
 Alpha  occ. eigenvalues --  -19.16472 -19.15883 -19.15385 -19.15080 -19.14511
 Alpha  occ. eigenvalues --  -19.12552 -10.30979 -10.29743 -10.26198 -10.25559
 Alpha  occ. eigenvalues --  -10.25359 -10.24849 -10.24771 -10.24707 -10.24465
 Alpha  occ. eigenvalues --  -10.23990 -10.23959 -10.23696  -1.09407  -1.08761
 Alpha  occ. eigenvalues --   -1.06234  -1.04783  -1.03589  -1.03074  -1.02348
 Alpha  occ. eigenvalues --   -1.01943  -1.01832  -1.00239  -0.99244  -0.82277
 Alpha  occ. eigenvalues --   -0.79553  -0.79430  -0.78165  -0.71777  -0.69991
 Alpha  occ. eigenvalues --   -0.67323  -0.64587  -0.63075  -0.62143  -0.61458
 Alpha  occ. eigenvalues --   -0.59706  -0.56516  -0.55931  -0.55001  -0.54622
 Alpha  occ. eigenvalues --   -0.53745  -0.53286  -0.52820  -0.51693  -0.51271
 Alpha  occ. eigenvalues --   -0.50814  -0.49561  -0.48918  -0.48262  -0.46576
 Alpha  occ. eigenvalues --   -0.45714  -0.44943  -0.44587  -0.43728  -0.42927
 Alpha  occ. eigenvalues --   -0.42286  -0.41671  -0.40730  -0.39823  -0.38994
 Alpha  occ. eigenvalues --   -0.38471  -0.37943  -0.37661  -0.35684  -0.34849
 Alpha  occ. eigenvalues --   -0.34696  -0.34274  -0.33921  -0.33623  -0.33290
 Alpha  occ. eigenvalues --   -0.32285  -0.31436  -0.30486  -0.29907  -0.29314
 Alpha  occ. eigenvalues --   -0.29199  -0.28193  -0.27873  -0.27438  -0.26678
 Alpha  occ. eigenvalues --   -0.25721
 Alpha virt. eigenvalues --   -0.02246  -0.02159  -0.01570  -0.00119   0.00353
 Alpha virt. eigenvalues --    0.01059   0.01921   0.02573   0.03105   0.03441
 Alpha virt. eigenvalues --    0.03746   0.04353   0.04683   0.05442   0.05668

 Mulliken atomic charges:
              1
     1  O   -0.536054
     2  C   -0.029915
     3  C    0.402068
     4  O   -0.545422
     5  H    0.337774
     6  C   -0.343685
     7  O   -0.596273
     8  H    0.424418
     9  C   -0.311804
    10  O   -0.547223
    11  H    0.339268
    12  C    0.188023
    13  O   -0.224750
    14  C    0.366051
    15  O   -0.264671
    16  C    0.190031
    17  C    0.047537
    18  O   -0.539185
    19  H    0.368245
    20  C    0.157906
    21  O   -0.561602
    22  H    0.332106
    23  C   -0.328560
    24  O   -0.551832
    25  H    0.358302
    26  C    0.068262
    27  O   -0.244476
    28  C    0.092182
    29  O   -0.520371
    30  H    0.331850
    31  H    0.139192
    32  H    0.129049
    33  H    0.104944
    34  H    0.107837
    35  H    0.118719
    36  H    0.146534
    37  H    0.164642
    38  H    0.341740
    39  H    0.150877
    40  H    0.143951
    41  H    0.100166
    42  H    0.122021
    43  H    0.126519
    44  H    0.129841
    45  H    0.115769
 Sum of Mulliken atomic charges =   0.00000

 Dipole moment (field-independent basis, Debye):
    X=              3.5538    Y=             -0.0297    Z=             -1.6019  Tot=              3.8983
 Quadrupole moment (field-independent basis, Debye-Ang):
   XX=           -114.9383   YY=           -133.9915   ZZ=           -139.9285
   XY=             12.4184   XZ=             -2.0661   YZ=             -5.3180

  Exact polarizability: 233.834  -0.018 199.501   1.535  -0.195 144.974
 Approx polarizability: 274.785   1.681 258.748   2.155  -0.784 240.616

 ******    7 imaginary frequencies (negative Signs) ******

                     1                      2                      3
                     A                      A                      A
 Frequencies --  -297.6080              -253.8112              -245.0503
 Red. masses --     1.7091                 1.7238                 1.1849
 Frc consts  --     0.0892                 0.0654                 0.0419
 IR Inten    --     4.5832                 2.2098               106.6184
 Raman Activ --     0.0959                 0.0294                 0.9523

                     4                      5                      6
                     A                      A                      A
 Frequencies --  -195.1393               -78.7849               -55.7358
 Red. masses --     1.1725                 6.8787                 6.6426
 Frc consts  --     0.0263                 0.0252                 0.0122
 IR Inten    --   108.0814                 1.0363                 0.2058
 Raman Activ --     1.0229                 0.0269                 0.0436

                     7                      8                      9
                     A                      A                      A
 Frequencies --   -46.4026                31.2944                59.1377
 Red. masses --     6.7805                 6.3688                 6.6434
 Frc consts  --     0.0086                 0.0037                 0.0137
 IR Inten    --     0.8505                 2.0837                 2.6406
 Raman Activ --     0.0369                 0.0837                 0.0895

                    10                     11                     12
                     A                      A                      A
 Frequencies --    71.0563                76.3607               121.7534
 Red. masses --     6.8699                 6.7917                 5.9943
 Frc consts  --     0.0204                 0.0233                 0.0524
 IR Inten    --     1.0931                 0.2620                 1.2916
 Raman Activ --     0.0783                 0.2172                 0.0432

                    13                     14                     15
                     A                      A                      A
 Frequencies --   149.5971               158.9796               175.9725
 Red. masses --     6.3909                 7.4349                 6.1822
 Frc consts  --     0.0843                 0.1107                 0.1128
 IR Inten    --     2.4417                 2.4432                 1.9128
 Raman Activ --     0.4949                 0.4407                 0.5201

                    16                     17                     18
                     A                      A                      A
 Frequencies --   214.6107               229.2297               253.6561
 Red. masses --     7.1415                 5.5936                 4.5682
 Frc consts  --     0.1938                 0.1732                 0.1732
 IR Inten    --     0.2233                 2.6616                16.7177
 Raman Activ --     2.7996                 0.3355                 0.4754

                    19                     20                     21
                     A                      A                      A
 Frequencies --   273.6161               287.2003               297.6771
 Red. masses --     4.6435                 4.8710                 4.6981
 Frc consts  --     0.2048                 0.2367                 0.2453
 IR Inten    --     3.2372                 2.9898                 2.1970
 Raman Activ --     0.0836                 0.5643                 0.2941

                    22                     23                     24
                     A                      A                      A
 Frequencies --   308.4573               310.7357               320.5290
 Red. masses --     5.9248                 6.0051                 5.7129
 Frc consts  --     0.3321                 0.3416                 0.3458
 IR Inten    --    11.5938                 1.0915                 3.0302
 Raman Activ --     0.9045                 2.2964                 4.0680

                    25                     26                     27
                     A                      A                      A
 Frequencies --   340.8249               354.7608               380.3073
 Red. masses --     5.2475                 6.6743                 5.8035
 Frc consts  --     0.3591                 0.4949                 0.4946
 IR Inten    --    14.6758                 7.6286                 3.1092
 Raman Activ --     0.6572                 3.2232                 0.7479

                    28                     29                     30
                     A                      A                      A
 Frequencies --   405.1192               419.4393               420.4925
 Red. masses --     4.0832                 5.9658                 5.4026
 Frc consts  --     0.3948                 0.6184                 0.5628
 IR Inten    --    11.5460                 1.0855                 2.8852
 Raman Activ --     1.8424                 7.5036                 1.8711

                    31                     32                     33
                     A                      A                      A
 Frequencies --   433.3552               466.6648               485.0156
 Red. masses --     5.2050                 4.1542                 4.6933
 Frc consts  --     0.5759                 0.5330                 0.6505
 IR Inten    --     4.7175                 1.6805                11.8266
 Raman Activ --     2.1061                 4.8459                 0.3638

                    34                     35                     36
                     A                      A                      A
 Frequencies --   502.5989               520.2215               560.5933
 Red. masses --     3.6839                 3.2571                 3.9338
 Frc consts  --     0.5483                 0.5194                 0.7284
 IR Inten    --    16.7745                10.6729                34.0447
 Raman Activ --     1.5501                 4.1173                 1.4428

                    37                     38                     39
                     A                      A                      A
 Frequencies --   586.5792               590.6781               612.0662
 Red. masses --     3.2450                 6.2378                 4.8118
 Frc consts  --     0.6578                 1.2823                 1.0621
 IR Inten    --    18.0525                 4.3226                40.3350
 Raman Activ --     0.5355                 0.5154                 1.3865

                    40                     41                     42
                     A                      A                      A
 Frequencies --   620.3302               653.3394               662.9997
 Red. masses --     3.6840                 1.0956                 1.0562
 Frc consts  --     0.8352                 0.2755                 0.2735
 IR Inten    --     9.4657                98.8003                96.2893
 Raman Activ --     0.2836                 1.6155                 2.8129

                    43                     44                     45
                     A                      A                      A
 Frequencies --   690.9741               700.8439               737.7086
 Red. masses --     5.2497                 1.0960                 1.0771
 Frc consts  --     1.4767                 0.3172                 0.3454
 IR Inten    --     9.6368                93.1912               148.7479
 Raman Activ --     1.1145                 1.6976                 3.5504

                    46                     47                     48
                     A                      A                      A
 Frequencies --   768.8867               799.1481               843.5113
 Red. masses --     1.0678                 1.1085                 1.8452
 Frc consts  --     0.3719                 0.4171                 0.7735
 IR Inten    --    93.9471               111.9278                 7.6457
 Raman Activ --     1.6548                 1.3153                 1.6975

                    49                     50                     51
                     A                      A                      A
 Frequencies --   857.5816               914.8222               943.1411
 Red. masses --     1.6856                 5.8325                 5.4550
 Frc consts  --     0.7304                 2.8760                 2.8589
 IR Inten    --    11.7626               142.2329                56.9646
 Raman Activ --     0.8590                 2.7267                 1.2002

                    52                     53                     54
                     A                      A                      A
 Frequencies --   965.1473               974.2752               980.6299
 Red. masses --     7.5978                 4.7385                 4.2564
 Frc consts  --     4.1699                 2.6500                 2.4116
 IR Inten    --    68.3941                24.2773                90.7355
 Raman Activ --     1.8352                 1.9565                 1.7345

                    55                     56                     57
                     A                      A                      A
 Frequencies --   996.6739              1004.8458              1014.3677
 Red. masses --     5.2820                 7.2649                 6.7266
 Frc consts  --     3.0914                 4.3219                 4.0779
 IR Inten    --   383.5990                88.7464                90.1908
 Raman Activ --     2.5526                 1.3676                 4.4088

                    58                     59                     60
                     A                      A                      A
 Frequencies --  1037.0172              1051.8878              1064.6889
 Red. masses --     6.3082                 4.0751                 2.8598
 Frc consts  --     3.9970                 2.6566                 1.9100
 IR Inten    --   408.7130                74.6700                58.8267
 Raman Activ --     3.4673                 3.9796                 6.4493

                    61                     62                     63
                     A                      A                      A
 Frequencies --  1068.5455              1075.5275              1076.9167
 Red. masses --     6.8313                 3.6241                 5.4907
 Frc consts  --     4.5956                 2.4700                 3.7518
 IR Inten    --   102.1372                37.3213                23.3241
 Raman Activ --     1.1028                17.3381                 2.8260

                    64                     65                     66
                     A                      A                      A
 Frequencies --  1085.6061              1090.1436              1105.3413
 Red. masses --     3.2833                 2.2521                 3.3905
 Frc consts  --     2.2798                 1.5769                 2.4407
 IR Inten    --    68.4425                27.4052                 0.1567
 Raman Activ --    22.8358                 2.8941                 9.7944

                    67                     68                     69
                     A                      A                      A
 Frequencies --  1108.7767              1121.4761              1131.2296
 Red. masses --     3.4553                 2.5176                 2.2060
 Frc consts  --     2.5028                 1.8656                 1.6632
 IR Inten    --    55.5697                45.1839                 7.1304
 Raman Activ --     2.6516                 3.4708                 7.1973

                    70                     71                     72
                     A                      A                      A
 Frequencies --  1138.4840              1150.8092              1162.5424
 Red. masses --     2.3826                 2.4184                 2.1886
 Frc consts  --     1.8195                 1.8870                 1.7427
 IR Inten    --    96.9791                16.2668                30.9367
 Raman Activ --     3.8964                 4.6280                 0.8433

                    73                     74                     75
                     A                      A                      A
 Frequencies --  1180.6639              1184.7263              1204.2612
 Red. masses --     1.7151                 1.7447                 1.5838
 Frc consts  --     1.4087                 1.4428                 1.3533
 IR Inten    --    13.9097                 9.3402                22.8411
 Raman Activ --     3.8902                 0.5160                 2.0900

                    76                     77                     78
                     A                      A                      A
 Frequencies --  1213.2211              1216.0728              1225.1332
 Red. masses --     1.4592                 1.2928                 1.2254
 Frc consts  --     1.2654                 1.1264                 1.0836
 IR Inten    --    14.4065                12.0101                10.5470
 Raman Activ --     2.1439                 2.3605                 1.5251

                    79                     80                     81
                     A                      A                      A
 Frequencies --  1230.3842              1232.2553              1246.5726
 Red. masses --     1.2464                 1.3338                 1.3357
 Frc consts  --     1.1117                 1.1933                 1.2230
 IR Inten    --     0.1997                 8.2007                22.6252
 Raman Activ --     1.3551                 2.7944                 1.8399

                    82                     83                     84
                     A                      A                      A
 Frequencies --  1269.5970              1276.0630              1287.3918
 Red. masses --     1.2491                 1.3003                 1.3167
 Frc consts  --     1.1862                 1.2475                 1.2858
 IR Inten    --    20.5871                51.7712                 6.6417
 Raman Activ --     1.0586                 3.5196                 1.6842

                    85                     86                     87
                     A                      A                      A
 Frequencies --  1294.7302              1296.2720              1303.1618
 Red. masses --     1.2778                 1.2801                 1.3227
 Frc consts  --     1.2620                 1.2673                 1.3235
 IR Inten    --     2.6457                 0.9125                47.3221
 Raman Activ --     4.2746                 2.3063                 0.8722

                    88                     89                     90
                     A                      A                      A
 Frequencies --  1307.2019              1313.6282              1323.3284
 Red. masses --     1.3215                 1.1755                 1.3403
 Frc consts  --     1.3305                 1.1951                 1.3829
 IR Inten    --    16.2492                 4.6233                29.0774
 Raman Activ --     4.9924                 7.9733                 8.2985

                    91                     92                     93
                     A                      A                      A
 Frequencies --  1339.6818              1343.7273              1353.2523
 Red. masses --     1.1768                 1.3595                 1.1045
 Frc consts  --     1.2444                 1.4463                 1.1917
 IR Inten    --    12.6685                 2.0860                33.9218
 Raman Activ --     8.9375                 3.5167                 2.7167

                    94                     95                     96
                     A                      A                      A
 Frequencies --  1360.6513              1362.6760              1373.8672
 Red. masses --     1.3669                 1.4732                 1.2230
 Frc consts  --     1.4911                 1.6118                 1.3601
 IR Inten    --    21.2277                 5.9344                39.6530
 Raman Activ --     4.1463                 6.8432                 1.5709

                    97                     98                     99
                     A                      A                      A
 Frequencies --  1386.3043              1389.1712              1392.7487
 Red. masses --     1.5886                 1.3008                 1.3351
 Frc consts  --     1.7987                 1.4790                 1.5259
 IR Inten    --    27.0393                 5.2911                 2.1099
 Raman Activ --     4.5760                 0.9373                 6.2240

                   100                    101                    102
                     A                      A                      A
 Frequencies --  1400.3585              1426.0924              1452.0881
 Red. masses --     1.5295                 1.2846                 1.4083
 Frc consts  --     1.7672                 1.5393                 1.7496
 IR Inten    --     7.1148                43.5887                21.7407
 Raman Activ --     5.5180                 1.0975                 2.5297

                   103                    104                    105
                     A                      A                      A
 Frequencies --  1454.6825              1461.4471              1468.7185
 Red. masses --     1.3936                 1.3710                 1.0731
 Frc consts  --     1.7375                 1.7252                 1.3638
 IR Inten    --    42.2923                19.6065                 5.8965
 Raman Activ --     2.9544                 1.0989                 5.1878

                   106                    107                    108
                     A                      A                      A
 Frequencies --  1473.4193              1501.2228              3242.2928
 Red. masses --     1.1135                 1.2637                 1.0687
 Frc consts  --     1.4243                 1.6780                 6.6191
 IR Inten    --     6.6087                33.8550              1031.9705
 Raman Activ --     2.6781                 0.9692               135.4524

                   109                    110                    111
                     A                      A                      A
 Frequencies --  3256.6512              3257.9865              3259.0266
 Red. masses --     1.0644                 1.0816                 1.0753
 Frc consts  --     6.6511                 6.7644                 6.7290
 IR Inten    --    25.5275                60.1992                21.7692
 Raman Activ --   130.9992                 7.0967                19.9293

                   112                    113                    114
                     A                      A                      A
 Frequencies --  3266.4603              3269.7805              3274.2441
 Red. masses --     1.0615                 1.0797                 1.0809
 Frc consts  --     6.6729                 6.8015                 6.8276
 IR Inten    --    32.3365                13.6652                31.2493
 Raman Activ --   269.3928                22.2538               122.9765

                   115                    116                    117
                     A                      A                      A
 Frequencies --  3277.5403              3282.9903              3285.5605
 Red. masses --     1.0837                 1.0859                 1.0849
 Frc consts  --     6.8588                 6.8954                 6.9002
 IR Inten    --     4.8096                10.0065                 5.2524
 Raman Activ --    31.4347                29.6569                12.5274

                   118                    119                    120
                     A                      A                      A
 Frequencies --  3291.8456              3297.9601              3302.7309
 Red. masses --     1.0859                 1.0872                 1.0873
 Frc consts  --     6.9327                 6.9672                 6.9881
 IR Inten    --     2.1451                60.9494                83.4420
 Raman Activ --   102.4423                29.2197                 7.3941

                   121                    122                    123
                     A                      A                      A
 Frequencies --  3309.6804              3320.8277              3358.4665
 Red. masses --     1.1045                 1.1060                 1.0663
 Frc consts  --     7.1283                 7.1862                 7.0862
 IR Inten    --    53.7771                54.1860               251.1231
 Raman Activ --    25.0946                30.9436               131.6135

                   124                    125                    126
                     A                      A                      A
 Frequencies --  3366.2751              3368.0912              3373.0903
 Red. masses --     1.0654                 1.0672                 1.0686
 Frc consts  --     7.1132                 7.1330                 7.1634
 IR Inten    --    26.4363                25.7763                54.1867
 Raman Activ --   112.0635               216.9224               153.9422

                   127                    128                    129
                     A                      A                      A
 Frequencies --  3379.1058              3888.6312              3892.5081
 Red. masses --     1.0677                 1.0676                 1.0674
 Frc consts  --     7.1833                 9.5117                 9.5285
 IR Inten    --    53.8475                78.4883                69.0771
 Raman Activ --   150.1552                81.6744               124.7127

 - Thermochemistry -
 -------------------
 Temperature   298.150 Kelvin.  Pressure   1.00000 Atm.
 Atom     1 has atomic number  8 and mass  15.99491

 Molecular mass:   342.11621 amu.
 Principal axes and moments of inertia in atomic units:
                           1         2         3
     Eigenvalues --  4552.34588********************
           X            0.99998   0.00670  -0.00069
           Y           -0.00670   0.99998  -0.00101
           Z            0.00069   0.00101   1.00000
 This molecule is an asymmetric top.
 Rotational symmetry number  1.
 Warning -- assumption of classical behavior for rotation
           may cause significant error
 Rotational temperatures (Kelvin)      0.01903     0.00701     0.00528
 Rotational constants (GHZ):           0.39644     0.14612     0.10995
    7 imaginary frequencies ignored.
 Zero-point vibrational energy     971267.9 (Joules/Mol)
                                  232.13861 (Kcal/Mol)
 Warning -- explicit consideration of  33 degrees of freedom as
           vibrations may cause significant error
 Vibrational temperatures:     45.03    85.09   102.23   109.87   175.18
          (Kelvin)            215.24   228.74   253.18   308.78   329.81
                              364.95   393.67   413.22   428.29   443.80
                              447.08   461.17   490.37   510.42   547.18
                              582.88   603.48   604.99   623.50   671.43
                              697.83   723.13   748.48   806.57   843.96
                              849.85   880.63   892.52   940.01   953.91
                              994.16  1008.36  1061.40  1106.26  1149.79
                             1213.62  1233.87  1316.22  1356.97  1388.63
                             1401.76  1410.91  1433.99  1445.75  1459.45
                             1492.03  1513.43  1531.85  1537.40  1547.44
                             1549.44  1561.94  1568.47  1590.34  1595.28
                             1613.55  1627.59  1638.02  1655.76  1672.64
                             1698.71  1704.55  1732.66  1745.55  1749.66
                             1762.69  1770.25  1772.94  1793.54  1826.66
                             1835.97  1852.27  1862.83  1865.04  1874.96
                             1880.77  1890.02  1903.97  1927.50  1933.32
                             1947.03  1957.67  1960.58  1976.69  1994.58
                             1998.70  2003.85  2014.80  2051.83  2089.23
                             2092.96  2102.69  2113.16  2119.92  2159.92
                             4664.93  4685.59  4687.51  4689.01  4699.70
                             4704.48  4710.90  4715.64  4723.48  4727.18
                             4736.23  4745.02  4751.89  4761.89  4777.92
                             4832.08  4843.31  4845.93  4853.12  4861.77
                             5594.87  5600.44

 Zero-point correction=                           0.369936 (Hartree/Particle)
 Thermal correction to Energy=                    0.388577
 Thermal correction to Enthalpy=                  0.389521
 Thermal correction to Gibbs Free Energy=         0.323589
 Sum of electronic and zero-point Energies=          -1297.610418
 Sum of electronic and thermal Energies=             -1297.591778
 Sum of electronic and thermal Enthalpies=           -1297.590834
 Sum of electronic and thermal Free Energies=        -1297.656766

                     E (Thermal)             CV                S
                      KCal/Mol        Cal/Mol-Kelvin    Cal/Mol-Kelvin
 Total                  243.836             76.672            138.765
 Electronic               0.000              0.000              0.000
 Translational            0.889              2.981             43.384
 Rotational               0.889              2.981             35.177
 Vibrational            242.058             70.711             60.203
 Vibration     1          0.594              1.983              5.746
 Vibration     2          0.597              1.974              4.486
 Vibration     3          0.598              1.968              4.124
 Vibration     4          0.599              1.965              3.982
 Vibration     5          0.609              1.931              3.072
 Vibration     6          0.618              1.903              2.677
 Vibration     7          0.621              1.893              2.562
 Vibration     8          0.628              1.872              2.371
 Vibration     9          0.645              1.819              2.004
 Vibration    10          0.652              1.796              1.885
 Vibration    11          0.665              1.757              1.705
 Vibration    12          0.676              1.722              1.573
 Vibration    13          0.684              1.697              1.490
 Vibration    14          0.691              1.678              1.430
 Vibration    15          0.698              1.658              1.371
 Vibration    16          0.700              1.653              1.358
 Vibration    17          0.706              1.634              1.307
 Vibration    18          0.720              1.594              1.208
 Vibration    19          0.731              1.565              1.145
 Vibration    20          0.750              1.512              1.038
 Vibration    21          0.770              1.459              0.944
 Vibration    22          0.782              1.428              0.894
 Vibration    23          0.783              1.426              0.890
 Vibration    24          0.794              1.398              0.848
 Vibration    25          0.824              1.324              0.747
 Vibration    26          0.841              1.283              0.697
 Vibration    27          0.858              1.244              0.652
 Vibration    28          0.875              1.205              0.609
 Vibration    29          0.916              1.117              0.523
 Vibration    30          0.944              1.060              0.473
 Vibration    31          0.948              1.052              0.466
 Vibration    32          0.971              1.006              0.429
 Vibration    33          0.980              0.989              0.416

 Normal termination of Gaussian 09 at Tue Mar 29 02:04:38 2016.
