 Gaussian 09, Revision B.01,
 Gaussian 09:  EM64L-G09RevB.01 12-Aug-2010

 ------------------------------------------------
 # freq=raman b3lyp/6-31+g(d,p) geom=connectivity
 ------------------------------------------------

 -------------
 290 10000.com
 -------------
 Symbolic Z-matrix:
 Charge =  0 Multiplicity = 1

                         Standard orientation:
 ---------------------------------------------------------------------
 Center     Atomic      Atomic             Coordinates (Angstroms)
 Number     Number       Type             X           Y           Z
 ---------------------------------------------------------------------
      1          8           0        5.007985   -0.427835   -0.440029
      2          6           0        3.744672   -0.147825    0.179551
      3          6           0        3.220472    1.174132   -0.355900
      4          8           0        4.115946    2.168110    0.162112
      5          1           0        5.015625    2.094883   -0.268594
      6          6           0        1.832526    1.629544    0.066377
      7          8           0        1.251321    2.814130   -0.497655
      8          1           0        0.426355    3.006798    0.035369
      9          6           0        3.018758   -2.532864    0.411336
     10          8           0        4.073490   -3.278067   -0.214413
     11          1           0        3.866236   -4.219660    0.050941
     12          6           0        2.704476   -1.182839   -0.214953
     13          8           0        1.454311   -0.800479    0.376312
     14          6           0        0.924181    0.428109   -0.143041
     15          8           0       -0.298866    0.536557    0.599803
     16          6           0       -1.482207    0.202476   -0.139825
     17          6           0       -2.012182   -1.174293    0.227304
     18          8           0       -1.055792   -2.102482   -0.307029
     19          1           0       -0.172176   -1.844865    0.083063
     20          6           0       -3.418558   -1.594314   -0.166866
     21          8           0       -3.901579   -2.705215    0.602311
     22          1           0       -4.693178   -3.099633    0.134996
     23          6           0       -2.174259    2.690202   -0.049318
     24          8           0       -1.142588    3.385863    0.665880
     25          1           0       -1.296148    4.372340    0.715895
     26          6           0       -2.553089    1.234908    0.169140
     27          8           0       -3.799636    0.878304   -0.445861
     28          6           0       -4.303577   -0.375342    0.037066
     29          8           0       -5.509252   -0.639409   -0.695065
     30          1           0        5.655408   -0.641743    0.235758
     31          1           0       -6.216978   -0.848993   -0.081226
     32          1           0       -4.537352   -0.281918    1.077028
     33          1           0       -3.424942   -1.860010   -1.203333
     34          1           0       -1.959707   -1.248849    1.293412
     35          1           0       -1.261410    0.226793   -1.186514
     36          1           0       -2.725044    1.149911    1.221807
     37          1           0       -3.070599    3.254536    0.102346
     38          1           0       -1.925273    2.777973   -1.086238
     39          1           0        1.880754    1.796826    1.122119
     40          1           0        0.705870    0.316152   -1.184533
     41          1           0        3.279173    1.169060   -1.424277
     42          1           0        3.848482   -0.106559    1.243703
     43          1           0        2.619446   -1.260907   -1.278708
     44          1           0        2.129593   -3.127542    0.385960
     45          1           0        3.285860   -2.371772    1.434862
 ---------------------------------------------------------------------

 SCF Done:  E(RB3LYP) =  -1297.93883903     A.U. after   13 cycles

 The electronic state is 1-A.
 Alpha  occ. eigenvalues --  -19.20003 -19.19168 -19.19094 -19.18763 -19.18365
 Alpha  occ. eigenvalues --  -19.18010 -19.17620 -19.17090 -19.15463 -19.14736
 Alpha  occ. eigenvalues --  -19.14695 -10.30896 -10.30421 -10.26352 -10.25898
 Alpha  occ. eigenvalues --  -10.25595 -10.25436 -10.25365 -10.25313 -10.24674
 Alpha  occ. eigenvalues --  -10.24609 -10.24402 -10.24194  -1.10023  -1.08930
 Alpha  occ. eigenvalues --   -1.05612  -1.05219  -1.04041  -1.03925  -1.02981
 Alpha  occ. eigenvalues --   -1.02701  -1.01894  -1.00994  -1.00264  -0.81980
 Alpha  occ. eigenvalues --   -0.80116  -0.79374  -0.78319  -0.72232  -0.70039
 Alpha  occ. eigenvalues --   -0.67191  -0.64848  -0.63525  -0.62457  -0.61226
 Alpha  occ. eigenvalues --   -0.60086  -0.56426  -0.55869  -0.55158  -0.54758
 Alpha  occ. eigenvalues --   -0.54148  -0.53368  -0.52855  -0.52468  -0.51387
 Alpha  occ. eigenvalues --   -0.50806  -0.50037  -0.49171  -0.48539  -0.46929
 Alpha  occ. eigenvalues --   -0.46181  -0.44904  -0.44374  -0.43547  -0.43279
 Alpha  occ. eigenvalues --   -0.42903  -0.41988  -0.41314  -0.40224  -0.38960
 Alpha  occ. eigenvalues --   -0.38812  -0.37838  -0.36933  -0.36413  -0.36128
 Alpha  occ. eigenvalues --   -0.35242  -0.34856  -0.34376  -0.34060  -0.33372
 Alpha  occ. eigenvalues --   -0.32566  -0.31721  -0.31028  -0.30743  -0.30008
 Alpha  occ. eigenvalues --   -0.29661  -0.28881  -0.28456  -0.27508  -0.26440
 Alpha  occ. eigenvalues --   -0.26246
 Alpha virt. eigenvalues --   -0.02263  -0.01782  -0.01656  -0.00047   0.00286
 Alpha virt. eigenvalues --    0.00967   0.02017   0.02167   0.02745   0.03319
 Alpha virt. eigenvalues --    0.03778   0.04500   0.04949   0.05171   0.05605

 Mulliken atomic charges:
              1
     1  O   -0.535515
     2  C   -0.078132
     3  C    0.202947
     4  O   -0.516836
     5  H    0.358222
     6  C   -0.349552
     7  O   -0.533483
     8  H    0.444423
     9  C   -0.082544
    10  O   -0.513173
    11  H    0.347834
    12  C    0.162325
    13  O   -0.400290
    14  C    0.368435
    15  O   -0.324708
    16  C   -0.023236
    17  C   -0.048914
    18  O   -0.522317
    19  H    0.395283
    20  C    0.088294
    21  O   -0.522475
    22  H    0.357562
    23  C   -0.144205
    24  O   -0.632397
    25  H    0.398277
    26  C    0.070124
    27  O   -0.323628
    28  C    0.239372
    29  O   -0.568861
    30  H    0.367751
    31  H    0.366452
    32  H    0.130711
    33  H    0.160068
    34  H    0.150161
    35  H    0.134745
    36  H    0.127545
    37  H    0.139757
    38  H    0.150556
    39  H    0.147633
    40  H    0.119947
    41  H    0.144542
    42  H    0.142300
    43  H    0.144261
    44  H    0.131727
    45  H    0.129012
 Sum of Mulliken atomic charges =   0.00000

 Dipole moment (field-independent basis, Debye):
    X=             -2.0980    Y=             -0.1672    Z=              2.4666  Tot=              3.2425
 Quadrupole moment (field-independent basis, Debye-Ang):
   XX=           -119.4288   YY=           -130.5507   ZZ=           -142.4038
   XY=             -8.9702   XZ=             -0.4118   YZ=             -0.5945

  Exact polarizability: 226.730   2.725 193.430  -0.381   0.206 141.351
 Approx polarizability: 263.025   3.134 246.904  -0.783   1.673 232.151

 ******    6 imaginary frequencies (negative Signs) ******

                     1                      2                      3
                     A                      A                      A
 Frequencies --  -341.3870              -324.6806              -319.5033
 Red. masses --     1.1639                 1.6342                 1.1550
 Frc consts  --     0.0799                 0.1015                 0.0695
 IR Inten    --   134.5625                 5.2679               118.9642
 Raman Activ --     1.5300                 0.0204                 0.9109

                     4                      5                      6
                     A                      A                      A
 Frequencies --  -242.3308               -78.1584               -63.2594
 Red. masses --     1.7817                 6.4985                 6.2870
 Frc consts  --     0.0616                 0.0234                 0.0148
 IR Inten    --     5.8647                 1.0777                 0.3181
 Raman Activ --     0.2708                 0.0218                 0.0317

                     7                      8                      9
                     A                      A                      A
 Frequencies --    43.9685                48.2656                61.1854
 Red. masses --     5.9537                 6.7778                 5.8395
 Frc consts  --     0.0068                 0.0093                 0.0129
 IR Inten    --     1.5902                 0.8217                 2.3948
 Raman Activ --     0.0629                 0.0557                 0.0505

                    10                     11                     12
                     A                      A                      A
 Frequencies --    86.7924                94.6252               121.9721
 Red. masses --     6.6964                 6.3627                 6.2206
 Frc consts  --     0.0297                 0.0336                 0.0545
 IR Inten    --     0.9280                 0.2375                 1.4972
 Raman Activ --     0.0745                 0.0921                 0.1700

                    13                     14                     15
                     A                      A                      A
 Frequencies --   150.6649               172.6307               176.7112
 Red. masses --     6.1733                 5.9414                 6.6850
 Frc consts  --     0.0826                 0.1043                 0.1230
 IR Inten    --     4.6797                 5.1814                 0.3518
 Raman Activ --     0.3999                 0.4480                 0.3143

                    16                     17                     18
                     A                      A                      A
 Frequencies --   202.5522               228.2812               269.6745
 Red. masses --     7.1608                 6.0269                 4.9675
 Frc consts  --     0.1731                 0.1850                 0.2128
 IR Inten    --     0.9083                 2.1062                10.6268
 Raman Activ --     1.6763                 0.8214                 0.4961

                    19                     20                     21
                     A                      A                      A
 Frequencies --   278.7151               288.3136               296.6100
 Red. masses --     5.3846                 5.4228                 5.7098
 Frc consts  --     0.2464                 0.2656                 0.2960
 IR Inten    --     7.5976                 3.3389                12.1735
 Raman Activ --     0.1347                 0.1307                 0.7241

                    22                     23                     24
                     A                      A                      A
 Frequencies --   301.0959               311.1782               326.9390
 Red. masses --     5.2123                 5.5267                 6.9990
 Frc consts  --     0.2784                 0.3153                 0.4408
 IR Inten    --     0.7256                 1.2126                 0.7156
 Raman Activ --     1.2944                 2.3122                 2.0152

                    25                     26                     27
                     A                      A                      A
 Frequencies --   337.6897               353.5471               374.7586
 Red. masses --     7.3258                 5.1294                 7.4942
 Frc consts  --     0.4922                 0.3778                 0.6201
 IR Inten    --     7.7337                 4.9938                 1.1450
 Raman Activ --     5.2961                 0.4880                 1.2919

                    28                     29                     30
                     A                      A                      A
 Frequencies --   408.4809               415.9910               434.6487
 Red. masses --     5.1926                 4.1850                 4.9039
 Frc consts  --     0.5105                 0.4267                 0.5458
 IR Inten    --    11.2935                17.8568                 2.7467
 Raman Activ --     6.0750                 2.1130                 1.5883

                    31                     32                     33
                     A                      A                      A
 Frequencies --   443.4624               482.7111               498.9441
 Red. masses --     5.0074                 4.4468                 3.8330
 Frc consts  --     0.5802                 0.6105                 0.5622
 IR Inten    --     0.6739                 8.2317                10.7366
 Raman Activ --     4.5281                 1.2049                 1.7149

                    34                     35                     36
                     A                      A                      A
 Frequencies --   521.0646               535.0451               562.7746
 Red. masses --     4.4583                 3.1870                 4.4025
 Frc consts  --     0.7132                 0.5375                 0.8215
 IR Inten    --     5.9244                 9.5134                 9.0514
 Raman Activ --     2.3892                 3.8347                 1.2105

                    37                     38                     39
                     A                      A                      A
 Frequencies --   573.9719               585.7699               613.4492
 Red. masses --     2.9047                 5.8408                 4.8713
 Frc consts  --     0.5638                 1.1808                 1.0801
 IR Inten    --    47.6376                 1.1628                17.7718
 Raman Activ --     0.2219                 0.8184                 0.3067

                    40                     41                     42
                     A                      A                      A
 Frequencies --   626.0094               659.3892               692.7409
 Red. masses --     3.8723                 1.0899                 4.7387
 Frc consts  --     0.8941                 0.2792                 1.3398
 IR Inten    --    47.8676               122.5626                 5.4442
 Raman Activ --     0.8929                 1.7227                 0.8460

                    43                     44                     45
                     A                      A                      A
 Frequencies --   712.6029               714.0363               720.3601
 Red. masses --     1.0767                 1.0809                 1.1050
 Frc consts  --     0.3221                 0.3247                 0.3379
 IR Inten    --    47.0245               132.0654               137.2088
 Raman Activ --     0.4448                 2.7600                 2.2364

                    46                     47                     48
                     A                      A                      A
 Frequencies --   837.3712               846.9361               859.7425
 Red. masses --     1.5415                 1.0945                 1.7287
 Frc consts  --     0.6368                 0.4626                 0.7528
 IR Inten    --    33.6504                84.4301                 3.2040
 Raman Activ --     0.7165                 1.3306                 1.2143

                    49                     50                     51
                     A                      A                      A
 Frequencies --   903.8668               949.9323               971.8507
 Red. masses --     1.1700                 4.5416                 4.4639
 Frc consts  --     0.5632                 2.4146                 2.4841
 IR Inten    --    57.3303               149.3005                45.4501
 Raman Activ --     0.6628                 2.8994                 0.4857

                    52                     53                     54
                     A                      A                      A
 Frequencies --   992.9314               999.4620              1005.9238
 Red. masses --     7.0344                 5.6394                 4.8909
 Frc consts  --     4.0862                 3.3191                 2.9159
 IR Inten    --    62.3557               134.0111                19.1653
 Raman Activ --     2.1806                 2.5122                 1.3624

                    55                     56                     57
                     A                      A                      A
 Frequencies --  1015.5089              1028.8760              1039.1819
 Red. masses --     5.9998                 5.5246                 5.5645
 Frc consts  --     3.6455                 3.4457                 3.5405
 IR Inten    --   326.0272                90.4767               103.5958
 Raman Activ --     2.5319                 2.1906                 4.6254

                    58                     59                     60
                     A                      A                      A
 Frequencies --  1049.9979              1056.7865              1070.2011
 Red. masses --     5.2243                 4.2216                 3.2576
 Frc consts  --     3.3935                 2.7778                 2.1983
 IR Inten    --   409.8983                12.5412                50.9271
 Raman Activ --     1.3480                 3.0225                 4.5521

                    61                     62                     63
                     A                      A                      A
 Frequencies --  1077.1503              1077.7773              1094.3571
 Red. masses --     3.9737                 4.0486                 5.8908
 Frc consts  --     2.7165                 2.7709                 4.1567
 IR Inten    --    69.4649               162.9531                78.8010
 Raman Activ --     9.9546                 3.6363                 0.3046

                    64                     65                     66
                     A                      A                      A
 Frequencies --  1099.0245              1106.4324              1117.2344
 Red. masses --     3.4226                 2.9505                 2.6350
 Frc consts  --     2.4357                 2.1281                 1.9379
 IR Inten    --    43.0407                33.6433                26.1880
 Raman Activ --    25.9469                 1.0157                 4.3141

                    67                     68                     69
                     A                      A                      A
 Frequencies --  1123.8055              1127.0610              1129.9789
 Red. masses --     2.0465                 2.1790                 2.2217
 Frc consts  --     1.5228                 1.6308                 1.6714
 IR Inten    --    19.3633                16.4300                26.6773
 Raman Activ --     3.2058                 1.6874                 2.7820

                    70                     71                     72
                     A                      A                      A
 Frequencies --  1132.9480              1157.3439              1165.7955
 Red. masses --     2.8297                 2.1263                 1.5826
 Frc consts  --     2.1400                 1.6780                 1.2672
 IR Inten    --     2.4874                13.6753                 0.3913
 Raman Activ --     9.4222                 5.3845                 2.4677

                    73                     74                     75
                     A                      A                      A
 Frequencies --  1170.3858              1173.2655              1195.3373
 Red. masses --     2.0240                 1.7478                 1.4873
 Frc consts  --     1.6335                 1.4175                 1.2521
 IR Inten    --     5.9058                 2.1611                 2.6815
 Raman Activ --     1.0478                 3.4361                 1.8454

                    76                     77                     78
                     A                      A                      A
 Frequencies --  1198.6211              1211.1303              1217.7292
 Red. masses --     1.5559                 1.5587                 1.3149
 Frc consts  --     1.3171                 1.3471                 1.1488
 IR Inten    --    26.4065                 8.0417                12.2100
 Raman Activ --     1.8093                 2.5225                 2.3205

                    79                     80                     81
                     A                      A                      A
 Frequencies --  1240.9688              1243.5840              1263.0376
 Red. masses --     1.2966                 1.2586                 1.2016
 Frc consts  --     1.1765                 1.1468                 1.1294
 IR Inten    --     7.9432                40.0772                 9.5113
 Raman Activ --     1.5860                 1.1649                 0.6523

                    82                     83                     84
                     A                      A                      A
 Frequencies --  1273.1923              1282.4407              1285.7704
 Red. masses --     1.2533                 1.2881                 1.4331
 Frc consts  --     1.1970                 1.2482                 1.3959
 IR Inten    --    18.8350                 8.2813                 2.3394
 Raman Activ --     2.0087                 4.3666                 2.4427

                    85                     86                     87
                     A                      A                      A
 Frequencies --  1297.4481              1299.2417              1306.8723
 Red. masses --     1.1965                 1.2477                 1.3457
 Frc consts  --     1.1867                 1.2409                 1.3542
 IR Inten    --    18.0858                10.5283                18.9146
 Raman Activ --     2.7603                 2.8714                 1.1206

                    88                     89                     90
                     A                      A                      A
 Frequencies --  1313.8373              1326.8527              1335.7104
 Red. masses --     1.3888                 1.2850                 1.4018
 Frc consts  --     1.4125                 1.3329                 1.4735
 IR Inten    --    13.5004                23.2677                43.6461
 Raman Activ --     8.3677                 8.8047                 1.9035

                    91                     92                     93
                     A                      A                      A
 Frequencies --  1346.2424              1347.4477              1359.1009
 Red. masses --     1.2461                 1.1781                 1.6749
 Frc consts  --     1.3306                 1.2602                 1.8228
 IR Inten    --    10.7323                65.1824                 3.1234
 Raman Activ --     4.3340                 1.9234                11.4491

                    94                     95                     96
                     A                      A                      A
 Frequencies --  1360.9400              1368.1659              1373.5806
 Red. masses --     1.2469                 1.2474                 1.4493
 Frc consts  --     1.3607                 1.3757                 1.6111
 IR Inten    --    19.7042                37.8697                14.3453
 Raman Activ --     3.4371                 7.3810                 3.8621

                    97                     98                     99
                     A                      A                      A
 Frequencies --  1386.3571              1391.5160              1409.5680
 Red. masses --     1.4516                 1.4791                 1.4493
 Frc consts  --     1.6438                 1.6874                 1.6966
 IR Inten    --     5.9201                 4.4507                13.0608
 Raman Activ --     1.2215                12.3390                 2.2397

                   100                    101                    102
                     A                      A                      A
 Frequencies --  1415.9834              1419.8927              1446.3316
 Red. masses --     1.4413                 1.3835                 1.3845
 Frc consts  --     1.7026                 1.6434                 1.7064
 IR Inten    --    23.2134                24.3499                 9.1212
 Raman Activ --     7.1163                 2.2628                 0.8202

                   103                    104                    105
                     A                      A                      A
 Frequencies --  1477.0515              1477.8171              1484.6456
 Red. masses --     1.0833                 1.1705                 1.2610
 Frc consts  --     1.3924                 1.5062                 1.6376
 IR Inten    --     4.6594                 7.9665                29.0957
 Raman Activ --     5.0980                 4.9560                 0.7352

                   106                    107                    108
                     A                      A                      A
 Frequencies --  1496.7431              1499.9435              3252.4500
 Red. masses --     1.2718                 1.2951                 1.0683
 Frc consts  --     1.6786                 1.7167                 6.6582
 IR Inten    --    27.3265                32.1546               745.6916
 Raman Activ --     2.2932                 1.9416                86.4391

                   109                    110                    111
                     A                      A                      A
 Frequencies --  3264.3084              3265.6968              3275.1205
 Red. masses --     1.0568                 1.0795                 1.0635
 Frc consts  --     6.6350                 6.7829                 6.7214
 IR Inten    --    37.4587                50.3694                84.5665
 Raman Activ --    88.2680               121.0641               153.8810

                   112                    113                    114
                     A                      A                      A
 Frequencies --  3286.8825              3290.6266              3293.8813
 Red. masses --     1.0828                 1.0831                 1.0852
 Frc consts  --     6.8927                 6.9102                 6.9368
 IR Inten    --     4.8040                 9.9592                28.5090
 Raman Activ --    35.1907                87.5895               154.9691

                   115                    116                    117
                     A                      A                      A
 Frequencies --  3295.2981              3304.0132              3304.7433
 Red. masses --     1.0848                 1.0868                 1.0859
 Frc consts  --     6.9403                 6.9899                 6.9877
 IR Inten    --     5.7465                 6.1372                 5.4205
 Raman Activ --     6.7012                24.5715                96.1070

                   118                    119                    120
                     A                      A                      A
 Frequencies --  3308.6592              3316.2545              3316.8756
 Red. masses --     1.0852                 1.0878                 1.0943
 Frc consts  --     6.9993                 7.0482                 7.0935
 IR Inten    --    17.1090                24.2231                49.3107
 Raman Activ --    22.5833                19.7675                19.0950

                   121                    122                    123
                     A                      A                      A
 Frequencies --  3322.4498              3325.7095              3338.1672
 Red. masses --     1.1040                 1.0985                 1.0682
 Frc consts  --     7.1803                 7.1587                 7.0132
 IR Inten    --    53.4603                65.3242               443.9473
 Raman Activ --    49.0856                11.6614               172.1962

                   124                    125                    126
                     A                      A                      A
 Frequencies --  3390.9017              3391.1407              3391.3836
 Red. masses --     1.0667                 1.0665                 1.0668
 Frc consts  --     7.2267                 7.2260                 7.2292
 IR Inten    --    44.0379                35.7973                27.4047
 Raman Activ --   134.9778                93.9527               207.8216

                   127                    128                    129
                     A                      A                      A
 Frequencies --  3401.8633              3921.2617              3921.8170
 Red. masses --     1.0682                 1.0675                 1.0677
 Frc consts  --     7.2837                 9.6714                 9.6753
 IR Inten    --    79.2534                79.5358                65.5323
 Raman Activ --   163.2098                95.1487               108.3839

 - Thermochemistry -
 -------------------
 Temperature   298.150 Kelvin.  Pressure   1.00000 Atm.
 Atom     1 has atomic number  8 and mass  15.99491

 Molecular mass:   342.11621 amu.
 Principal axes and moments of inertia in atomic units:
                           1         2         3
     Eigenvalues --  4497.73156********************
           X            0.99998  -0.00599  -0.00019
           Y            0.00599   0.99998  -0.00227
           Z            0.00020   0.00227   1.00000
 This molecule is an asymmetric top.
 Rotational symmetry number  1.
 Warning -- assumption of classical behavior for rotation
           may cause significant error
 Rotational temperatures (Kelvin)      0.01926     0.00709     0.00533
 Rotational constants (GHZ):           0.40126     0.14764     0.11111
    6 imaginary frequencies ignored.
 Zero-point vibrational energy     978792.7 (Joules/Mol)
                                  233.93706 (Kcal/Mol)
 Warning -- explicit consideration of  33 degrees of freedom as
           vibrations may cause significant error
 Vibrational temperatures:     63.26    69.44    88.03   124.87   136.14
          (Kelvin)            175.49   216.77   248.38   254.25   291.43
                              328.45   388.00   401.01   414.82   426.76
                              433.21   447.72   470.39   485.86   508.67
                              539.19   587.71   598.52   625.36   638.04
                              694.51   717.87   749.69   769.81   809.71
                              825.82   842.79   882.62   900.69   948.71
                              996.70  1025.28  1027.34  1036.44  1204.79
                             1218.55  1236.98  1300.46  1366.74  1398.27
                             1428.61  1438.00  1447.30  1461.09  1480.32
                             1495.15  1510.71  1520.48  1539.78  1549.78
                             1550.68  1574.53  1581.25  1591.91  1607.45
                             1616.90  1621.59  1625.79  1630.06  1665.16
                             1677.32  1683.92  1688.07  1719.82  1724.55
                             1742.54  1752.04  1785.48  1789.24  1817.23
                             1831.84  1845.14  1849.93  1866.74  1869.32
                             1880.30  1890.32  1909.04  1921.79  1936.94
                             1938.67  1955.44  1958.09  1968.48  1976.27
                             1994.66  2002.08  2028.05  2037.28  2042.91
                             2080.95  2125.15  2126.25  2136.07  2153.48
                             2158.08  4679.54  4696.61  4698.60  4712.16
                             4729.08  4734.47  4739.15  4741.19  4753.73
                             4754.78  4760.42  4771.34  4772.24  4780.26
                             4784.95  4802.87  4878.75  4879.09  4879.44
                             4894.52  5641.81  5642.61

 Zero-point correction=                           0.372802 (Hartree/Particle)
 Thermal correction to Energy=                    0.391979
 Thermal correction to Enthalpy=                  0.392923
 Thermal correction to Gibbs Free Energy=         0.325756
 Sum of electronic and zero-point Energies=          -1297.566037
 Sum of electronic and thermal Energies=             -1297.546860
 Sum of electronic and thermal Enthalpies=           -1297.545916
 Sum of electronic and thermal Free Energies=        -1297.613083

                     E (Thermal)             CV                S
                      KCal/Mol        Cal/Mol-Kelvin    Cal/Mol-Kelvin
 Total                  245.970             77.662            141.364
 Electronic               0.000              0.000              0.000
 Translational            0.889              2.981             43.384
 Rotational               0.889              2.981             35.145
 Vibrational            244.193             71.701             62.835
 Vibration     1          0.595              1.980              5.072
 Vibration     2          0.595              1.978              4.887
 Vibration     3          0.597              1.973              4.419
 Vibration     4          0.601              1.958              3.731
 Vibration     5          0.603              1.953              3.562
 Vibration     6          0.609              1.931              3.069
 Vibration     7          0.618              1.902              2.664
 Vibration     8          0.626              1.876              2.407
 Vibration     9          0.628              1.871              2.363
 Vibration    10          0.639              1.836              2.110
 Vibration    11          0.651              1.798              1.892
 Vibration    12          0.674              1.729              1.598
 Vibration    13          0.679              1.713              1.542
 Vibration    14          0.685              1.695              1.484
 Vibration    15          0.690              1.680              1.436
 Vibration    16          0.693              1.672              1.411
 Vibration    17          0.700              1.652              1.356
 Vibration    18          0.711              1.622              1.275
 Vibration    19          0.718              1.600              1.223
 Vibration    20          0.730              1.568              1.150
 Vibration    21          0.746              1.524              1.060
 Vibration    22          0.773              1.452              0.932
 Vibration    23          0.779              1.436              0.906
 Vibration    24          0.795              1.395              0.844
 Vibration    25          0.803              1.375              0.816
 Vibration    26          0.839              1.288              0.703
 Vibration    27          0.854              1.252              0.661
 Vibration    28          0.876              1.203              0.607
 Vibration    29          0.890              1.173              0.576
 Vibration    30          0.919              1.112              0.518
 Vibration    31          0.930              1.088              0.497
 Vibration    32          0.943              1.062              0.475
 Vibration    33          0.973              1.003              0.427

 Normal termination of Gaussian 09 at Thu Jan 21 05:03:34 2016.
