 Gaussian 09, Revision B.01,
 Gaussian 09:  EM64L-G09RevB.01 12-Aug-2010

 ------------------------------------------------
 # freq=raman b3lyp/6-31+g(d,p) geom=connectivity
 ------------------------------------------------

 ------------
 290 5000.com
 ------------
 Symbolic Z-matrix:
 Charge =  0 Multiplicity = 1

                         Standard orientation:
 ---------------------------------------------------------------------
 Center     Atomic      Atomic             Coordinates (Angstroms)
 Number     Number       Type             X           Y           Z
 ---------------------------------------------------------------------
      1          8           0       -5.076385    0.389660   -0.340387
      2          6           0       -3.758359    0.107064    0.151414
      3          6           0       -3.270083   -1.272753   -0.258124
      4          8           0       -4.249787   -2.250186    0.120230
      5          1           0       -5.175390   -1.889051    0.012112
      6          6           0       -1.894043   -1.576439    0.312389
      7          8           0       -1.409546   -2.782118   -0.295482
      8          1           0       -0.412308   -2.713906   -0.330145
      9          6           0       -2.955199    2.617131   -0.010727
     10          8           0       -4.197661    3.332786   -0.056549
     11          1           0       -4.111132    4.325946    0.021555
     12          6           0       -2.752120    1.143416   -0.323265
     13          8           0       -1.438949    0.804074    0.143431
     14          6           0       -0.912744   -0.502872   -0.129019
     15          8           0        0.301434   -0.626649    0.626026
     16          6           0        1.536471   -0.190760    0.038901
     17          6           0        2.025974    1.208264    0.376187
     18          8           0        1.008726    2.155924    0.020038
     19          1           0        0.094775    1.925993    0.353657
     20          6           0        3.437264    1.519262   -0.093307
     21          8           0        4.015351    2.773144    0.297715
     22          1           0        4.863708    2.765571   -0.231756
     23          6           0        2.371187   -2.637783   -0.104740
     24          8           0        1.099669   -3.238589    0.179649
     25          1           0        1.314397   -4.212695    0.247365
     26          6           0        2.622610   -1.208457    0.346408
     27          8           0        3.822792   -0.828358   -0.341408
     28          6           0        4.401329    0.376465    0.181289
     29          8           0        5.485020    0.495947   -0.752100
     30          1           0       -5.665121    0.556077    0.399407
     31          1           0        6.308497    0.613919   -0.272968
     32          1           0        4.716000    0.298614    1.201005
     33          1           0       -3.790616    0.142525    1.220340
     34          1           0       -3.190142   -1.287270   -1.325035
     35          1           0       -2.727294    1.065413   -1.390129
     36          1           0       -2.293915    3.144828   -0.665814
     37          1           0       -2.578395    2.756378    0.981003
     38          1           0       -1.923176   -1.662894    1.378492
     39          1           0       -0.705548   -0.603396   -1.173942
     40          1           0        1.389502   -0.210472   -1.020775
     41          1           0        2.810402   -1.205929    1.399797
     42          1           0        3.124160   -3.252793    0.342133
     43          1           0        2.511342   -2.669273   -1.165053
     44          1           0        2.077324    1.239634    1.444494
     45          1           0        3.363893    1.572454   -1.159463
 ---------------------------------------------------------------------

 SCF Done:  E(RB3LYP) =  -1297.92464310     A.U. after   14 cycles

 The electronic state is 1-A.
 Alpha  occ. eigenvalues --  -19.19610 -19.19503 -19.19339 -19.19059 -19.18978
 Alpha  occ. eigenvalues --  -19.17741 -19.17611 -19.16767 -19.15412 -19.14795
 Alpha  occ. eigenvalues --  -19.13447 -10.31869 -10.31412 -10.26490 -10.26298
 Alpha  occ. eigenvalues --  -10.26147 -10.25644 -10.25624 -10.25431 -10.25292
 Alpha  occ. eigenvalues --  -10.24608 -10.24419 -10.24279  -1.10314  -1.09634
 Alpha  occ. eigenvalues --   -1.05872  -1.05195  -1.04158  -1.03980  -1.03119
 Alpha  occ. eigenvalues --   -1.02227  -1.01570  -1.00802  -0.99776  -0.82319
 Alpha  occ. eigenvalues --   -0.80155  -0.79899  -0.78521  -0.72224  -0.70321
 Alpha  occ. eigenvalues --   -0.67869  -0.65154  -0.63363  -0.62691  -0.61660
 Alpha  occ. eigenvalues --   -0.60328  -0.57088  -0.56082  -0.55261  -0.55031
 Alpha  occ. eigenvalues --   -0.53787  -0.53477  -0.53177  -0.52260  -0.51433
 Alpha  occ. eigenvalues --   -0.51206  -0.49802  -0.49106  -0.48749  -0.46601
 Alpha  occ. eigenvalues --   -0.46398  -0.45516  -0.45119  -0.44025  -0.43578
 Alpha  occ. eigenvalues --   -0.42761  -0.41966  -0.41097  -0.40372  -0.39314
 Alpha  occ. eigenvalues --   -0.38946  -0.38746  -0.38144  -0.35770  -0.35607
 Alpha  occ. eigenvalues --   -0.35034  -0.34873  -0.33823  -0.33662  -0.33200
 Alpha  occ. eigenvalues --   -0.32516  -0.31492  -0.31007  -0.30493  -0.30259
 Alpha  occ. eigenvalues --   -0.29179  -0.28360  -0.28214  -0.27133  -0.26749
 Alpha  occ. eigenvalues --   -0.26382
 Alpha virt. eigenvalues --   -0.02201  -0.02078  -0.01914  -0.00354  -0.00090
 Alpha virt. eigenvalues --    0.01073   0.01883   0.02414   0.02762   0.03360
 Alpha virt. eigenvalues --    0.03667   0.04353   0.04728   0.05457   0.05689

 Mulliken atomic charges:
              1
     1  O   -0.539819
     2  C   -0.284480
     3  C    0.131016
     4  O   -0.518420
     5  H    0.359538
     6  C    0.126425
     7  O   -0.534951
     8  H    0.437118
     9  C   -0.131980
    10  O   -0.580877
    11  H    0.370564
    12  C    0.329562
    13  O   -0.456566
    14  C    0.121911
    15  O   -0.289242
    16  C   -0.020116
    17  C    0.026953
    18  O   -0.519246
    19  H    0.414691
    20  C    0.001383
    21  O   -0.478655
    22  H    0.347898
    23  C   -0.043230
    24  O   -0.600137
    25  H    0.397609
    26  C   -0.098768
    27  O   -0.295009
    28  C    0.234095
    29  O   -0.559468
    30  H    0.373772
    31  H    0.359551
    32  H    0.138840
    33  H    0.133357
    34  H    0.131075
    35  H    0.128964
    36  H    0.141920
    37  H    0.137824
    38  H    0.145601
    39  H    0.131630
    40  H    0.125421
    41  H    0.132264
    42  H    0.132071
    43  H    0.154276
    44  H    0.129463
    45  H    0.156171
 Sum of Mulliken atomic charges =   0.00000

 Dipole moment (field-independent basis, Debye):
    X=              3.7816    Y=              0.1710    Z=              2.1510  Tot=              4.3539
 Quadrupole moment (field-independent basis, Debye-Ang):
   XX=           -116.2146   YY=           -139.5782   ZZ=           -139.0441
   XY=            -19.8392   XZ=             -0.3134   YZ=             -1.5908

  Exact polarizability: 231.717   0.444 192.960  -1.136   0.498 141.139
 Approx polarizability: 268.909  -0.536 247.526  -2.339   1.004 230.719

 ******    8 imaginary frequencies (negative Signs) ******

                     1                      2                      3
                     A                      A                      A
 Frequencies --  -353.0379              -275.5542              -270.8341
 Red. masses --     1.7083                 1.1595                 1.1835
 Frc consts  --     0.1254                 0.0519                 0.0511
 IR Inten    --     7.4361               101.8341               135.0791
 Raman Activ --     0.0710                 0.9743                 0.9339

                     4                      5                      6
                     A                      A                      A
 Frequencies --  -264.8339               -85.0081               -66.9909
 Red. masses --     1.7674                 7.3308                 6.5362
 Frc consts  --     0.0730                 0.0312                 0.0173
 IR Inten    --     0.4189                 1.7831                 0.8595
 Raman Activ --     0.0511                 0.0193                 0.0327

                     7                      8                      9
                     A                      A                      A
 Frequencies --   -47.8080               -38.4271                49.0973
 Red. masses --     6.7520                 6.5918                 6.6363
 Frc consts  --     0.0091                 0.0057                 0.0094
 IR Inten    --     0.2831                 1.0306                 0.4428
 Raman Activ --     0.0361                 0.0262                 0.0292

                    10                     11                     12
                     A                      A                      A
 Frequencies --    70.4607                81.8911               102.6164
 Red. masses --     6.4860                 6.6623                 5.7221
 Frc consts  --     0.0190                 0.0263                 0.0355
 IR Inten    --     4.2861                 0.8510                 0.6775
 Raman Activ --     0.0854                 0.2640                 0.1808

                    13                     14                     15
                     A                      A                      A
 Frequencies --   135.7791               163.5359               184.1437
 Red. masses --     6.0551                 6.3749                 7.4414
 Frc consts  --     0.0658                 0.1004                 0.1487
 IR Inten    --     3.3603                 0.9326                 1.6225
 Raman Activ --     0.2809                 0.2651                 0.9176

                    16                     17                     18
                     A                      A                      A
 Frequencies --   214.6303               219.8328               244.5735
 Red. masses --     7.1590                 5.7321                 4.3619
 Frc consts  --     0.1943                 0.1632                 0.1537
 IR Inten    --     0.3018                 2.8418                20.3084
 Raman Activ --     3.5285                 0.1980                 0.2299

                    19                     20                     21
                     A                      A                      A
 Frequencies --   267.1161               293.5319               294.0857
 Red. masses --     4.9451                 5.2379                 4.6306
 Frc consts  --     0.2079                 0.2659                 0.2360
 IR Inten    --     5.0813                 2.2676                 1.1580
 Raman Activ --     0.1386                 0.8052                 0.0519

                    22                     23                     24
                     A                      A                      A
 Frequencies --   306.6487               317.4451               322.0433
 Red. masses --     5.9785                 6.6052                 5.4005
 Frc consts  --     0.3312                 0.3922                 0.3300
 IR Inten    --     6.3069                 2.9281                 1.8995
 Raman Activ --     1.4667                 2.1870                 3.4744

                    25                     26                     27
                     A                      A                      A
 Frequencies --   350.8639               359.8566               387.2218
 Red. masses --     6.3767                 4.1005                 5.6707
 Frc consts  --     0.4625                 0.3129                 0.5010
 IR Inten    --     8.3437                 1.9025                 2.6298
 Raman Activ --     2.6916                 0.5567                 0.7453

                    28                     29                     30
                     A                      A                      A
 Frequencies --   401.9033               417.7137               429.8942
 Red. masses --     4.8773                 5.2901                 6.4577
 Frc consts  --     0.4642                 0.5438                 0.7032
 IR Inten    --    22.7914                 1.5312                 0.5190
 Raman Activ --     1.8071                 6.0077                 4.1218

                    31                     32                     33
                     A                      A                      A
 Frequencies --   443.6762               477.4984               482.8868
 Red. masses --     4.8099                 4.4824                 4.7188
 Frc consts  --     0.5578                 0.6021                 0.6483
 IR Inten    --     2.5620                11.4095                14.7660
 Raman Activ --     1.1812                 3.3592                 0.2750

                    34                     35                     36
                     A                      A                      A
 Frequencies --   499.8448               534.0702               567.2751
 Red. masses --     3.8725                 3.1392                 3.3310
 Frc consts  --     0.5701                 0.5276                 0.6316
 IR Inten    --    16.3524                11.5111                 9.6657
 Raman Activ --     4.7570                 2.9031                 0.8815

                    37                     38                     39
                     A                      A                      A
 Frequencies --   580.9352               599.3847               606.8302
 Red. masses --     2.9691                 1.0808                 6.0287
 Frc consts  --     0.5904                 0.2288                 1.3080
 IR Inten    --    56.9328               108.2337                 7.6856
 Raman Activ --     0.6854                 2.3243                 0.7794

                    40                     41                     42
                     A                      A                      A
 Frequencies --   619.2603               632.2791               684.6597
 Red. masses --     4.4663                 4.9967                 5.2818
 Frc consts  --     1.0091                 1.1769                 1.4587
 IR Inten    --     1.1157                38.8894                18.4241
 Raman Activ --     0.2382                 1.4875                 1.2926

                    43                     44                     45
                     A                      A                      A
 Frequencies --   688.4701               712.1453               714.7749
 Red. masses --     1.0702                 1.0943                 1.0607
 Frc consts  --     0.2989                 0.3270                 0.3193
 IR Inten    --   152.1257                68.3542               140.4486
 Raman Activ --     3.6176                 1.5608                 1.8801

                    46                     47                     48
                     A                      A                      A
 Frequencies --   757.4497               778.9115               850.2054
 Red. masses --     1.0943                 1.0906                 1.8516
 Frc consts  --     0.3699                 0.3898                 0.7886
 IR Inten    --    79.7070               148.8992                 3.3857
 Raman Activ --     1.5379                 0.7557                 2.4534

                    49                     50                     51
                     A                      A                      A
 Frequencies --   860.5560               923.9736               953.1543
 Red. masses --     1.6838                 5.8063                 5.1114
 Frc consts  --     0.7347                 2.9206                 2.7360
 IR Inten    --     7.3622               132.3826                39.1982
 Raman Activ --     1.5031                 2.6885                 0.2074

                    52                     53                     54
                     A                      A                      A
 Frequencies --   975.1415               986.2380              1000.2083
 Red. masses --     4.7438                 5.1281                 4.9839
 Frc consts  --     2.6577                 2.9388                 2.9377
 IR Inten    --    24.7089                90.8137               241.7167
 Raman Activ --     1.5045                 4.0478                 0.8136

                    55                     56                     57
                     A                      A                      A
 Frequencies --  1005.1680              1015.6336              1022.6904
 Red. masses --     6.2014                 6.6241                 5.6256
 Frc consts  --     3.6916                 4.0258                 3.4666
 IR Inten    --   240.7910                13.9903                85.4218
 Raman Activ --     0.5867                 2.5170                 2.6673

                    58                     59                     60
                     A                      A                      A
 Frequencies --  1048.4409              1059.3663              1070.1838
 Red. masses --     3.1438                 2.3359                 4.2726
 Frc consts  --     2.0361                 1.5446                 2.8831
 IR Inten    --   362.6107                39.5232               100.9063
 Raman Activ --     1.4113                13.6923                 1.7713

                    61                     62                     63
                     A                      A                      A
 Frequencies --  1081.2705              1092.0431              1095.5724
 Red. masses --     5.9120                 3.6156                 5.4039
 Frc consts  --     4.0724                 2.5404                 3.8215
 IR Inten    --    36.3554                85.4138                28.6347
 Raman Activ --     2.3656                 4.7399                 2.2004

                    64                     65                     66
                     A                      A                      A
 Frequencies --  1101.4263              1105.0455              1110.6831
 Red. masses --     2.5125                 2.8720                 3.1280
 Frc consts  --     1.7958                 2.0663                 2.2735
 IR Inten    --    89.3499                32.9758                69.3354
 Raman Activ --     4.5231                19.0637                 2.6642

                    67                     68                     69
                     A                      A                      A
 Frequencies --  1122.4661              1133.5823              1138.1935
 Red. masses --     2.4179                 3.2934                 2.4884
 Frc consts  --     1.7948                 2.4935                 1.8994
 IR Inten    --     6.6265                18.0633               152.3693
 Raman Activ --     2.9551                10.8011                 3.3405

                    70                     71                     72
                     A                      A                      A
 Frequencies --  1148.9163              1161.0043              1165.3876
 Red. masses --     3.0523                 1.8028                 2.0441
 Frc consts  --     2.3739                 1.4317                 1.6357
 IR Inten    --    13.7494                 2.6522                24.9365
 Raman Activ --     9.0827                 3.7364                 3.8959

                    73                     74                     75
                     A                      A                      A
 Frequencies --  1172.2740              1185.5249              1192.7583
 Red. masses --     2.1831                 1.8137                 1.8032
 Frc consts  --     1.7676                 1.5019                 1.5115
 IR Inten    --    25.8746                19.9138                38.8962
 Raman Activ --     2.8258                 2.8004                 1.4267

                    76                     77                     78
                     A                      A                      A
 Frequencies --  1198.1620              1213.1748              1223.1317
 Red. masses --     1.4615                 1.3058                 1.3730
 Frc consts  --     1.2362                 1.1323                 1.2102
 IR Inten    --    21.3675                 8.7953                 2.2358
 Raman Activ --     4.2126                 1.9150                 1.2257

                    79                     80                     81
                     A                      A                      A
 Frequencies --  1231.6250              1258.9351              1268.0697
 Red. masses --     1.5011                 1.2225                 1.2365
 Frc consts  --     1.3416                 1.1416                 1.1715
 IR Inten    --     0.5167                 7.4105                15.2233
 Raman Activ --     1.8470                 1.3879                 4.5770

                    82                     83                     84
                     A                      A                      A
 Frequencies --  1271.4788              1287.2858              1287.6737
 Red. masses --     1.2684                 1.3017                 1.2313
 Frc consts  --     1.2082                 1.2709                 1.2029
 IR Inten    --    12.9576                43.1544                48.7764
 Raman Activ --     1.6074                 3.3873                 4.4089

                    85                     86                     87
                     A                      A                      A
 Frequencies --  1299.1375              1304.5365              1308.1538
 Red. masses --     1.3383                 1.1477                 1.2078
 Frc consts  --     1.3308                 1.1508                 1.2178
 IR Inten    --     5.6095                13.6366                12.4928
 Raman Activ --     1.7259                 3.8493                 5.8198

                    88                     89                     90
                     A                      A                      A
 Frequencies --  1312.0685              1318.4276              1335.3165
 Red. masses --     1.3324                 1.2392                 1.3487
 Frc consts  --     1.3515                 1.2691                 1.4169
 IR Inten    --    26.2757                 6.2125                 7.1902
 Raman Activ --     7.6900                 5.9289                 0.7122

                    91                     92                     93
                     A                      A                      A
 Frequencies --  1339.9084              1347.4751              1352.2922
 Red. masses --     1.2204                 1.2802                 1.3949
 Frc consts  --     1.2909                 1.3695                 1.5029
 IR Inten    --    25.8495                13.6038                17.5280
 Raman Activ --     3.9743                 3.2836                10.1794

                    94                     95                     96
                     A                      A                      A
 Frequencies --  1361.6139              1373.7217              1382.0279
 Red. masses --     1.2718                 1.2585                 1.3594
 Frc consts  --     1.3892                 1.3993                 1.5298
 IR Inten    --    62.4644                 3.2011                12.6713
 Raman Activ --     4.3739                10.4435                 6.1727

                    97                     98                     99
                     A                      A                      A
 Frequencies --  1384.6339              1398.9947              1404.8254
 Red. masses --     1.3248                 1.4208                 1.6116
 Frc consts  --     1.4964                 1.6383                 1.8739
 IR Inten    --     8.6737                 7.2778                41.4095
 Raman Activ --     3.6660                 4.7317                 2.9645

                   100                    101                    102
                     A                      A                      A
 Frequencies --  1411.4322              1427.6598              1450.2653
 Red. masses --     1.6323                 1.3796                 1.3292
 Frc consts  --     1.9159                 1.6567                 1.6472
 IR Inten    --     9.3952                29.9696                 1.8046
 Raman Activ --     4.4687                 2.8072                 0.8487

                   103                    104                    105
                     A                      A                      A
 Frequencies --  1475.4228              1479.3594              1482.8058
 Red. masses --     1.2174                 1.4156                 1.2218
 Frc consts  --     1.5615                 1.8253                 1.5828
 IR Inten    --    12.0881                33.2161                 7.4596
 Raman Activ --     4.3758                 2.1683                 1.9051

                   106                    107                    108
                     A                      A                      A
 Frequencies --  1485.6024              1514.0008              3264.0575
 Red. masses --     1.0901                 1.2281                 1.0683
 Frc consts  --     1.4175                 1.6585                 6.7061
 IR Inten    --     2.7754                71.9690                48.1081
 Raman Activ --     4.7077                 1.9159               170.6435

                   109                    110                    111
                     A                      A                      A
 Frequencies --  3264.7429              3271.6129              3274.0000
 Red. masses --     1.0700                 1.0586                 1.0835
 Frc consts  --     6.7196                 6.6758                 6.8426
 IR Inten    --     9.8885               127.7238                 7.3963
 Raman Activ --     9.6814                59.0557                67.6295

                   112                    113                    114
                     A                      A                      A
 Frequencies --  3280.4560              3285.5670              3288.3215
 Red. masses --     1.0829                 1.0829                 1.0844
 Frc consts  --     6.8659                 6.8878                 6.9084
 IR Inten    --     4.3908                 4.6018                 2.2916
 Raman Activ --    51.7806               100.4870                68.8963

                   115                    116                    117
                     A                      A                      A
 Frequencies --  3296.0598              3297.0654              3299.6332
 Red. masses --     1.0747                 1.0864                 1.0838
 Frc consts  --     6.8792                 6.9580                 6.9521
 IR Inten    --   379.1252                37.9253               105.0387
 Raman Activ --   212.1421                 3.0930                80.8454

                   118                    119                    120
                     A                      A                      A
 Frequencies --  3303.2943              3313.8682              3317.8985
 Red. masses --     1.0834                 1.1020                 1.0880
 Frc consts  --     6.9655                 7.1300                 7.0567
 IR Inten    --   101.0673                34.8020                51.1522
 Raman Activ --    52.8631                32.4025                68.8333

                   121                    122                    123
                     A                      A                      A
 Frequencies --  3320.5280              3329.9469              3347.4033
 Red. masses --     1.0854                 1.1070                 1.0688
 Frc consts  --     7.0513                 7.2323                 7.0561
 IR Inten    --   104.9511                48.8573               570.7134
 Raman Activ --    22.0842                49.9690               150.8056

                   124                    125                    126
                     A                      A                      A
 Frequencies --  3387.5233              3388.8243              3392.2433
 Red. masses --     1.0650                 1.0684                 1.0660
 Frc consts  --     7.2007                 7.2291                 7.2274
 IR Inten    --    37.0099                61.9742                45.4077
 Raman Activ --    96.8356               176.3880               123.0086

                   127                    128                    129
                     A                      A                      A
 Frequencies --  3401.8811              3919.2286              3922.3313
 Red. masses --     1.0671                 1.0678                 1.0674
 Frc consts  --     7.2757                 9.6640                 9.6756
 IR Inten    --    56.7088                78.8158                59.4532
 Raman Activ --   146.9727                85.1538               139.5479

 - Thermochemistry -
 -------------------
 Temperature   298.150 Kelvin.  Pressure   1.00000 Atm.
 Atom     1 has atomic number  8 and mass  15.99491

 Molecular mass:   342.11621 amu.
 Principal axes and moments of inertia in atomic units:
                           1         2         3
     Eigenvalues --  4419.08725********************
           X            0.99996  -0.00844   0.00035
           Y            0.00844   0.99996   0.00025
           Z           -0.00035  -0.00025   1.00000
 This molecule is an asymmetric top.
 Rotational symmetry number  1.
 Warning -- assumption of classical behavior for rotation
           may cause significant error
 Rotational temperatures (Kelvin)      0.01960     0.00691     0.00522
 Rotational constants (GHZ):           0.40840     0.14391     0.10872
    8 imaginary frequencies ignored.
 Zero-point vibrational energy     975722.4 (Joules/Mol)
                                  233.20326 (Kcal/Mol)
 Warning -- explicit consideration of  32 degrees of freedom as
           vibrations may cause significant error
 Vibrational temperatures:     70.64   101.38   117.82   147.64   195.36
          (Kelvin)            235.29   264.94   308.80   316.29   351.89
                              384.32   422.33   423.12   441.20   456.73
                              463.35   504.81   517.75   557.13   578.25
                              601.00   618.52   638.35   687.01   694.77
                              719.16   768.41   816.18   835.84   862.38
                              873.09   890.98   909.71   985.07   990.55
                             1024.62  1028.40  1089.80  1120.68  1223.25
                             1238.15  1329.39  1371.37  1403.01  1418.97
                             1439.07  1446.21  1461.27  1471.42  1508.47
                             1524.19  1539.75  1555.71  1571.20  1576.28
                             1584.70  1589.91  1598.02  1614.98  1630.97
                             1637.60  1653.03  1670.42  1676.73  1686.64
                             1705.70  1716.11  1723.89  1745.49  1759.81
                             1772.03  1811.32  1824.47  1829.37  1852.11
                             1852.67  1869.17  1876.93  1882.14  1887.77
                             1896.92  1921.22  1927.83  1938.71  1945.64
                             1959.06  1976.48  1988.43  1992.18  2012.84
                             2021.23  2030.73  2054.08  2086.61  2122.80
                             2128.47  2133.42  2137.45  2178.31  4696.24
                             4697.23  4707.12  4710.55  4719.84  4727.19
                             4731.16  4742.29  4743.74  4747.43  4752.70
                             4767.91  4773.71  4777.49  4791.04  4816.16
                             4873.88  4875.76  4880.68  4894.54  5638.89
                             5643.35

 Zero-point correction=                           0.371633 (Hartree/Particle)
 Thermal correction to Energy=                    0.389397
 Thermal correction to Enthalpy=                  0.390341
 Thermal correction to Gibbs Free Energy=         0.326901
 Sum of electronic and zero-point Energies=          -1297.553010
 Sum of electronic and thermal Energies=             -1297.535246
 Sum of electronic and thermal Enthalpies=           -1297.534302
 Sum of electronic and thermal Free Energies=        -1297.597742

                     E (Thermal)             CV                S
                      KCal/Mol        Cal/Mol-Kelvin    Cal/Mol-Kelvin
 Total                  244.350             74.351            133.520
 Electronic               0.000              0.000              0.000
 Translational            0.889              2.981             43.384
 Rotational               0.889              2.981             35.174
 Vibrational            242.573             68.390             54.962
 Vibration     1          0.595              1.978              4.853
 Vibration     2          0.598              1.968              4.140
 Vibration     3          0.600              1.962              3.845
 Vibration     4          0.605              1.947              3.404
 Vibration     5          0.614              1.918              2.863
 Vibration     6          0.623              1.887              2.508
 Vibration     7          0.631              1.861              2.286
 Vibration     8          0.645              1.819              2.004
 Vibration     9          0.647              1.811              1.960
 Vibration    10          0.660              1.772              1.769
 Vibration    11          0.672              1.733              1.615
 Vibration    12          0.688              1.686              1.454
 Vibration    13          0.689              1.685              1.450
 Vibration    14          0.697              1.661              1.380
 Vibration    15          0.704              1.640              1.323
 Vibration    16          0.707              1.631              1.300
 Vibration    17          0.728              1.573              1.162
 Vibration    18          0.734              1.555              1.123
 Vibration    19          0.756              1.497              1.011
 Vibration    20          0.768              1.466              0.956
 Vibration    21          0.781              1.432              0.900
 Vibration    22          0.791              1.405              0.859
 Vibration    23          0.803              1.375              0.815
 Vibration    24          0.834              1.300              0.717
 Vibration    25          0.839              1.288              0.702
 Vibration    26          0.855              1.250              0.659
 Vibration    27          0.889              1.175              0.578
 Vibration    28          0.923              1.102              0.510
 Vibration    29          0.938              1.073              0.484
 Vibration    30          0.957              1.033              0.451
 Vibration    31          0.966              1.017              0.438
 Vibration    32          0.979              0.991              0.418

 Normal termination of Gaussian 09 at Thu Jan 21 04:54:05 2016.
