 Gaussian 09, Revision B.01,
 Gaussian 09:  EM64L-G09RevB.01 12-Aug-2010

 ------------------------------------------------
 # freq=raman b3lyp/6-31+g(d,p) geom=connectivity
 ------------------------------------------------

 ------------
 400 6000.com
 ------------
 Symbolic Z-matrix:
 Charge =  0 Multiplicity = 1

                         Standard orientation:
 ---------------------------------------------------------------------
 Center     Atomic      Atomic             Coordinates (Angstroms)
 Number     Number       Type             X           Y           Z
 ---------------------------------------------------------------------
      1          8           0       -4.932615   -0.560643    0.449818
      2          6           0       -3.682225   -0.169297   -0.135351
      3          6           0       -3.282658    1.247218    0.244544
      4          8           0       -4.338456    2.218207    0.212217
      5          1           0       -5.164240    1.664033    0.313430
      6          6           0       -1.953845    1.526079   -0.438495
      7          8           0       -1.504128    2.825008   -0.025928
      8          1           0       -0.551781    2.925120   -0.314560
      9          6           0       -2.755534   -2.575236    0.063397
     10          8           0       -3.901886   -3.360964    0.422833
     11          1           0       -3.705602   -4.328490    0.262420
     12          6           0       -2.530634   -1.084271    0.251748
     13          8           0       -1.324842   -0.856387   -0.491358
     14          6           0       -0.931999    0.459955   -0.078340
     15          8           0        0.382716    0.465639   -0.654832
     16          6           0        1.491181    0.148554    0.199238
     17          6           0        1.991213   -1.173418   -0.360557
     18          8           0        0.925894   -2.133707   -0.349259
     19          1           0        0.107456   -1.615173   -0.599196
     20          6           0        3.395408   -1.558426    0.078042
     21          8           0        4.001816   -2.483911   -0.837077
     22          1           0        4.853697   -2.766062   -0.396336
     23          6           0        2.131187    2.592196    0.089086
     24          8           0        1.047827    3.330933   -0.492696
     25          1           0        1.171501    4.227201   -0.068233
     26          6           0        2.589079    1.155557   -0.101960
     27          8           0        3.730659    0.871040    0.719296
     28          6           0        4.281033   -0.326606    0.151277
     29          8           0        5.369728   -0.404650    1.083376
     30          1           0        6.201951   -0.334946    0.609936
     31          1           0        2.997731    3.173998   -0.146516
     32          1           0        1.963697    2.672971    1.142805
     33          1           0        2.878080    1.034037   -1.125000
     34          1           0        1.229396    0.098338    1.235504
     35          1           0        2.119313   -0.969418   -1.403089
     36          1           0        3.345593   -2.009433    1.047068
     37          1           0        4.665478   -0.110675   -0.823646
     38          1           0       -5.590926   -0.663927   -0.241238
     39          1           0       -1.935420   -3.041329    0.568442
     40          1           0       -2.629231   -2.740274   -0.986227
     41          1           0       -2.315871   -0.913899    1.286035
     42          1           0       -3.791074   -0.207717   -1.199106
     43          1           0       -3.032316    1.183277    1.282879
     44          1           0       -2.099071    1.526845   -1.498594
     45          1           0       -0.825302    0.457178    0.986323
 ---------------------------------------------------------------------

 SCF Done:  E(RB3LYP) =  -1297.87691550     A.U. after   13 cycles

 The electronic state is 1-A.
 Alpha  occ. eigenvalues --  -19.20856 -19.20433 -19.19464 -19.19403 -19.18565
 Alpha  occ. eigenvalues --  -19.18558 -19.18367 -19.16540 -19.16450 -19.14505
 Alpha  occ. eigenvalues --  -19.13808 -10.31968 -10.31505 -10.26781 -10.26652
 Alpha  occ. eigenvalues --  -10.26345 -10.26342 -10.26240 -10.25875 -10.25661
 Alpha  occ. eigenvalues --  -10.24865 -10.24563 -10.24126  -1.12102  -1.10402
 Alpha  occ. eigenvalues --   -1.06623  -1.06024  -1.05020  -1.04469  -1.02828
 Alpha  occ. eigenvalues --   -1.02506  -1.02059  -1.00818  -1.00248  -0.82897
 Alpha  occ. eigenvalues --   -0.81896  -0.79602  -0.78778  -0.72474  -0.70357
 Alpha  occ. eigenvalues --   -0.67891  -0.65675  -0.63897  -0.62538  -0.62156
 Alpha  occ. eigenvalues --   -0.61378  -0.57165  -0.56546  -0.55183  -0.54756
 Alpha  occ. eigenvalues --   -0.54175  -0.53932  -0.53469  -0.52498  -0.52007
 Alpha  occ. eigenvalues --   -0.51105  -0.50287  -0.49758  -0.49300  -0.47962
 Alpha  occ. eigenvalues --   -0.46735  -0.45842  -0.44393  -0.44150  -0.43338
 Alpha  occ. eigenvalues --   -0.43177  -0.42671  -0.41410  -0.40711  -0.40375
 Alpha  occ. eigenvalues --   -0.40131  -0.38401  -0.37405  -0.36621  -0.36171
 Alpha  occ. eigenvalues --   -0.36006  -0.35420  -0.35132  -0.34038  -0.33505
 Alpha  occ. eigenvalues --   -0.32701  -0.32137  -0.31945  -0.30961  -0.30500
 Alpha  occ. eigenvalues --   -0.29636  -0.28669  -0.28026  -0.27578  -0.27402
 Alpha  occ. eigenvalues --   -0.26120
 Alpha virt. eigenvalues --   -0.02512  -0.02314  -0.02255  -0.00472  -0.00110
 Alpha virt. eigenvalues --    0.00364   0.01916   0.02143   0.02585   0.03269
 Alpha virt. eigenvalues --    0.04056   0.04255   0.04594   0.04862   0.05855

 Mulliken atomic charges:
              1
     1  O   -0.530044
     2  C   -0.201849
     3  C   -0.061334
     4  O   -0.486095
     5  H    0.353877
     6  C    0.068095
     7  O   -0.538350
     8  H    0.453432
     9  C   -0.101727
    10  O   -0.540846
    11  H    0.358112
    12  C    0.299596
    13  O   -0.422152
    14  C    0.084642
    15  O   -0.363693
    16  C    0.240730
    17  C   -0.393611
    18  O   -0.556462
    19  H    0.458511
    20  C    0.473110
    21  O   -0.478216
    22  H    0.346598
    23  C   -0.258389
    24  O   -0.564411
    25  H    0.372218
    26  C    0.195892
    27  O   -0.290826
    28  C   -0.035669
    29  O   -0.529568
    30  H    0.356479
    31  H    0.138877
    32  H    0.144546
    33  H    0.131344
    34  H    0.143982
    35  H    0.140102
    36  H    0.157193
    37  H    0.139711
    38  H    0.372257
    39  H    0.149332
    40  H    0.135356
    41  H    0.130726
    42  H    0.136027
    43  H    0.123943
    44  H    0.138090
    45  H    0.110463
 Sum of Mulliken atomic charges =   0.00000

 Dipole moment (field-independent basis, Debye):
    X=              3.2547    Y=             -0.1368    Z=             -1.1409  Tot=              3.4515
 Quadrupole moment (field-independent basis, Debye-Ang):
   XX=           -117.8306   YY=           -139.7147   ZZ=           -144.4506
   XY=             15.0650   XZ=              4.6559   YZ=             -0.5741

  Exact polarizability: 229.240  -2.647 191.577   1.161   1.729 140.399
 Approx polarizability: 267.382  -2.559 248.083   1.146   4.437 232.238

 ******    7 imaginary frequencies (negative Signs) ******

                     1                      2                      3
                     A                      A                      A
 Frequencies --  -364.0321              -349.0531              -339.7561
 Red. masses --     1.6479                 1.6761                 1.1570
 Frc consts  --     0.1287                 0.1203                 0.0787
 IR Inten    --     2.3347                 4.7344               102.2464
 Raman Activ --     0.0065                 0.0688                 1.1089

                     4                      5                      6
                     A                      A                      A
 Frequencies --  -273.5786               -79.0194               -70.5934
 Red. masses --     1.2180                 7.0803                 5.8894
 Frc consts  --     0.0537                 0.0260                 0.0173
 IR Inten    --   113.0869                 2.5006                 0.5220
 Raman Activ --     0.7645                 0.1059                 0.0603

                     7                      8                      9
                     A                      A                      A
 Frequencies --   -42.7817                44.2598                51.1897
 Red. masses --     6.4675                 6.2265                 6.3629
 Frc consts  --     0.0070                 0.0072                 0.0098
 IR Inten    --     1.8717                 0.1949                 1.1023
 Raman Activ --     0.0412                 0.1084                 0.0323

                    10                     11                     12
                     A                      A                      A
 Frequencies --    90.8597               104.6796               110.3779
 Red. masses --     6.8086                 6.1504                 5.8958
 Frc consts  --     0.0331                 0.0397                 0.0423
 IR Inten    --     0.5883                 2.6957                 2.0122
 Raman Activ --     0.1929                 0.0365                 0.0917

                    13                     14                     15
                     A                      A                      A
 Frequencies --   160.2838               172.6664               183.5570
 Red. masses --     6.5485                 6.3327                 6.5901
 Frc consts  --     0.0991                 0.1112                 0.1308
 IR Inten    --     4.1724                 0.2762                 0.6337
 Raman Activ --     0.2396                 0.3985                 1.6346

                    16                     17                     18
                     A                      A                      A
 Frequencies --   217.0624               242.3443               265.1094
 Red. masses --     7.2016                 6.1624                 5.1264
 Frc consts  --     0.1999                 0.2132                 0.2123
 IR Inten    --     0.3066                 4.4526                 6.9253
 Raman Activ --     2.5343                 0.1174                 0.6275

                    19                     20                     21
                     A                      A                      A
 Frequencies --   281.6630               288.3412               307.7575
 Red. masses --     4.5481                 4.2309                 6.3212
 Frc consts  --     0.2126                 0.2072                 0.3528
 IR Inten    --     7.2147                 5.6421                 5.3286
 Raman Activ --     0.0948                 0.6586                 1.7114

                    22                     23                     24
                     A                      A                      A
 Frequencies --   311.6090               319.9332               332.5094
 Red. masses --     5.1344                 6.1915                 5.7717
 Frc consts  --     0.2937                 0.3734                 0.3760
 IR Inten    --     1.8187                 0.4771                 8.4807
 Raman Activ --     2.2372                 3.2174                 1.5146

                    25                     26                     27
                     A                      A                      A
 Frequencies --   347.1476               365.5065               381.5888
 Red. masses --     5.0554                 5.7820                 7.1903
 Frc consts  --     0.3589                 0.4551                 0.6169
 IR Inten    --     4.0090                 2.8714                 2.5992
 Raman Activ --     0.5830                 0.0758                 5.1138

                    28                     29                     30
                     A                      A                      A
 Frequencies --   412.8962               437.0282               451.6546
 Red. masses --     5.2510                 4.8547                 4.9428
 Frc consts  --     0.5274                 0.5463                 0.5941
 IR Inten    --    10.4006                 8.2048                 4.8854
 Raman Activ --     2.1541                 4.9766                 1.2569

                    31                     32                     33
                     A                      A                      A
 Frequencies --   456.3123               472.8194               491.7682
 Red. masses --     6.2872                 4.3468                 5.0208
 Frc consts  --     0.7713                 0.5725                 0.7154
 IR Inten    --     9.3336                14.8390                 8.2350
 Raman Activ --     2.7100                 4.4561                 3.7410

                    34                     35                     36
                     A                      A                      A
 Frequencies --   514.4960               530.5014               568.3154
 Red. masses --     3.8663                 3.1472                 3.6110
 Frc consts  --     0.6030                 0.5219                 0.6872
 IR Inten    --    12.9645                13.1121                32.5570
 Raman Activ --     2.0426                 1.1093                 1.6882

                    37                     38                     39
                     A                      A                      A
 Frequencies --   584.2375               600.7720               624.7694
 Red. masses --     2.9387                 6.1903                 4.0515
 Frc consts  --     0.5910                 1.3164                 0.9318
 IR Inten    --    35.8100                17.4496                 6.4787
 Raman Activ --     2.4869                 0.7167                 1.3834

                    40                     41                     42
                     A                      A                      A
 Frequencies --   663.3779               665.6515               684.8277
 Red. masses --     1.1284                 4.8698                 1.0801
 Frc consts  --     0.2926                 1.2713                 0.2984
 IR Inten    --    90.3477                57.4171                84.1523
 Raman Activ --     1.8630                 1.6216                 1.4839

                    43                     44                     45
                     A                      A                      A
 Frequencies --   723.2870               733.0560               749.5107
 Red. masses --     4.0847                 1.1375                 1.1849
 Frc consts  --     1.2590                 0.3601                 0.3922
 IR Inten    --     8.1405                99.0451                87.2754
 Raman Activ --     2.2479                 1.5532                 1.7816

                    46                     47                     48
                     A                      A                      A
 Frequencies --   760.1396               849.7854               852.8675
 Red. masses --     1.0938                 1.7443                 1.5167
 Frc consts  --     0.3724                 0.7421                 0.6500
 IR Inten    --   157.4081                12.0648                33.8575
 Raman Activ --     3.8352                 2.1308                 0.1803

                    49                     50                     51
                     A                      A                      A
 Frequencies --   888.3821               937.8352               961.2794
 Red. masses --     1.2495                 5.4592                 5.9146
 Frc consts  --     0.5810                 2.8290                 3.2201
 IR Inten    --    87.5183               180.5125                56.7628
 Raman Activ --     1.4246                 2.5032                 1.3302

                    52                     53                     54
                     A                      A                      A
 Frequencies --   982.9037               986.9256               996.8738
 Red. masses --     4.7609                 4.2234                 5.5063
 Frc consts  --     2.7100                 2.4237                 3.2239
 IR Inten    --    50.3291                19.2450               157.0690
 Raman Activ --     4.5569                 1.9447                 0.5518

                    55                     56                     57
                     A                      A                      A
 Frequencies --  1010.6430              1015.4263              1037.3940
 Red. masses --     4.5993                 7.1792                 6.4906
 Frc consts  --     2.7678                 4.3613                 4.1155
 IR Inten    --   276.0170               108.9155               185.6926
 Raman Activ --     2.4012                 1.2653                 1.4514

                    58                     59                     60
                     A                      A                      A
 Frequencies --  1049.6974              1061.1693              1067.8612
 Red. masses --     3.9836                 5.8131                 2.6801
 Frc consts  --     2.5862                 3.8568                 1.8007
 IR Inten    --   106.2364                77.9066                17.1697
 Raman Activ --     2.3258                 0.7566                10.8096

                    61                     62                     63
                     A                      A                      A
 Frequencies --  1072.9076              1089.5879              1095.2312
 Red. masses --     3.8721                 3.4615                 5.8316
 Frc consts  --     2.6261                 2.4213                 4.1214
 IR Inten    --    34.0950                19.6602                44.3356
 Raman Activ --     6.7401                 1.8071                 2.2247

                    64                     65                     66
                     A                      A                      A
 Frequencies --  1107.1960              1110.3254              1122.4937
 Red. masses --     2.6270                 2.3917                 2.2550
 Frc consts  --     1.8974                 1.7373                 1.6740
 IR Inten    --   111.5559                 4.5434               117.4297
 Raman Activ --     2.8164                 6.5836                 4.2214

                    67                     68                     69
                     A                      A                      A
 Frequencies --  1132.2870              1141.8961              1159.1410
 Red. masses --     3.1299                 3.6090                 2.6458
 Frc consts  --     2.3643                 2.7726                 2.0945
 IR Inten    --    11.9388                32.3214                32.8100
 Raman Activ --    29.3543                 9.0696                 3.5697

                    70                     71                     72
                     A                      A                      A
 Frequencies --  1162.0322              1168.5365              1170.9918
 Red. masses --     1.7932                 2.9177                 2.0806
 Frc consts  --     1.4266                 2.3474                 1.6809
 IR Inten    --     3.7505                27.6364                26.9933
 Raman Activ --     1.8086                 2.7260                 2.1738

                    73                     74                     75
                     A                      A                      A
 Frequencies --  1186.0295              1197.5934              1204.6274
 Red. masses --     2.7138                 2.0616                 2.4392
 Frc consts  --     2.2492                 1.7421                 2.0855
 IR Inten    --    21.4610                68.9048                27.7188
 Raman Activ --     1.6959                 2.4834                 2.9113

                    76                     77                     78
                     A                      A                      A
 Frequencies --  1218.6440              1228.5358              1250.9022
 Red. masses --     1.5793                 1.4506                 1.3895
 Frc consts  --     1.3819                 1.2900                 1.2810
 IR Inten    --    22.4532                13.2050                23.5532
 Raman Activ --     3.0056                 4.0525                 0.9604

                    79                     80                     81
                     A                      A                      A
 Frequencies --  1261.9296              1266.3548              1275.5395
 Red. masses --     1.3469                 1.4048                 1.2205
 Frc consts  --     1.2637                 1.3273                 1.1700
 IR Inten    --     6.7645                44.5036                23.9866
 Raman Activ --     2.1533                 2.5795                 1.1684

                    82                     83                     84
                     A                      A                      A
 Frequencies --  1281.5497              1290.3025              1295.3082
 Red. masses --     1.3226                 1.3059                 1.3150
 Frc consts  --     1.2798                 1.2810                 1.3000
 IR Inten    --    23.5328                 5.0400                11.1004
 Raman Activ --     3.0663                 1.7479                 0.2862

                    85                     86                     87
                     A                      A                      A
 Frequencies --  1313.5197              1333.3890              1338.4443
 Red. masses --     1.2691                 1.1639                 1.3609
 Frc consts  --     1.2901                 1.2192                 1.4364
 IR Inten    --    39.6339                12.2372                12.4076
 Raman Activ --     7.5697                 6.7537                 5.1229

                    88                     89                     90
                     A                      A                      A
 Frequencies --  1341.6710              1346.8397              1354.0237
 Red. masses --     1.1915                 1.2282                 1.2937
 Frc consts  --     1.2637                 1.3127                 1.3975
 IR Inten    --     8.2430                 8.5867                 7.1473
 Raman Activ --    17.0517                 4.7195                 1.5792

                    91                     92                     93
                     A                      A                      A
 Frequencies --  1370.5776              1383.4735              1385.8955
 Red. masses --     1.2009                 1.3230                 1.2996
 Frc consts  --     1.3291                 1.4919                 1.4707
 IR Inten    --    11.3601                23.7738                 0.7490
 Raman Activ --     2.2087                 6.9762                12.3318

                    94                     95                     96
                     A                      A                      A
 Frequencies --  1394.2628              1406.2972              1409.4012
 Red. masses --     1.1942                 1.2619                 1.1609
 Frc consts  --     1.3678                 1.4704                 1.3587
 IR Inten    --     7.6820                19.8194                 8.2614
 Raman Activ --     1.7961                 2.4495                 5.1937

                    97                     98                     99
                     A                      A                      A
 Frequencies --  1412.0811              1417.8929              1424.4292
 Red. masses --     1.5621                 1.3361                 1.1305
 Frc consts  --     1.8352                 1.5826                 1.3515
 IR Inten    --    30.2118                 4.0308                15.5968
 Raman Activ --     5.9672                 3.6568                 0.7619

                   100                    101                    102
                     A                      A                      A
 Frequencies --  1439.9415              1453.7569              1468.5664
 Red. masses --     1.3574                 1.3885                 1.1549
 Frc consts  --     1.6582                 1.7290                 1.4675
 IR Inten    --    50.1642                41.1131                 5.0258
 Raman Activ --     1.8934                 0.8437                 5.5718

                   103                    104                    105
                     A                      A                      A
 Frequencies --  1474.1850              1480.0954              1502.0615
 Red. masses --     1.0806                 1.2435                 1.3236
 Frc consts  --     1.3836                 1.6050                 1.7595
 IR Inten    --     8.4688                 0.9201                26.7895
 Raman Activ --     5.0218                 0.8873                 0.7794

                   106                    107                    108
                     A                      A                      A
 Frequencies --  1514.4801              1538.7133              3247.9415
 Red. masses --     1.2910                 1.1996                 1.0665
 Frc consts  --     1.7447                 1.6735                 6.6284
 IR Inten    --    52.6705                52.0412               479.9251
 Raman Activ --     4.4447                 0.7827                74.3215

                   109                    110                    111
                     A                      A                      A
 Frequencies --  3259.4688              3261.0004              3263.9512
 Red. masses --     1.0583                 1.0720                 1.0748
 Frc consts  --     6.6242                 6.7165                 6.7464
 IR Inten    --    21.1893               101.0414               169.3333
 Raman Activ --    60.0859               255.4173               100.7219

                   112                    113                    114
                     A                      A                      A
 Frequencies --  3266.0978              3275.5218              3280.1490
 Red. masses --     1.0767                 1.0829                 1.0803
 Frc consts  --     6.7670                 6.8456                 6.8482
 IR Inten    --   163.7257                33.7394               214.3168
 Raman Activ --    45.4482                47.7272                24.8920

                   115                    116                    117
                     A                      A                      A
 Frequencies --  3283.8077              3290.7211              3294.4364
 Red. masses --     1.0803                 1.0860                 1.0768
 Frc consts  --     6.8638                 6.9288                 6.8855
 IR Inten    --   212.8950                 5.8301               644.0781
 Raman Activ --   119.0060                 8.1537               159.6986

                   118                    119                    120
                     A                      A                      A
 Frequencies --  3296.1589              3305.6332              3308.4300
 Red. masses --     1.0842                 1.0883                 1.0867
 Frc consts  --     6.9405                 7.0068                 7.0079
 IR Inten    --    46.2672                71.6322                21.1019
 Raman Activ --    75.6972                11.6407                17.0504

                   121                    122                    123
                     A                      A                      A
 Frequencies --  3314.2709              3318.6484              3322.5947
 Red. masses --     1.1027                 1.1033                 1.0885
 Frc consts  --     7.1362                 7.1591                 7.0801
 IR Inten    --    32.4054                65.0924                74.9616
 Raman Activ --    67.2447                39.5962                28.0669

                   124                    125                    126
                     A                      A                      A
 Frequencies --  3384.3631              3385.3307              3393.8392
 Red. masses --     1.0673                 1.0653                 1.0661
 Frc consts  --     7.2029                 7.1934                 7.2347
 IR Inten    --    33.3779                65.1891                31.4106
 Raman Activ --   119.0870               129.3352               143.4491

                   127                    128                    129
                     A                      A                      A
 Frequencies --  3402.8784              3917.9077              3919.3516
 Red. masses --     1.0658                 1.0679                 1.0677
 Frc consts  --     7.2717                 9.6580                 9.6632
 IR Inten    --    73.7423                84.6762                58.0784
 Raman Activ --   111.1940                85.9662               131.7265

 - Thermochemistry -
 -------------------
 Temperature   298.150 Kelvin.  Pressure   1.00000 Atm.
 Atom     1 has atomic number  8 and mass  15.99491

 Molecular mass:   342.11621 amu.
 Principal axes and moments of inertia in atomic units:
                           1         2         3
     Eigenvalues --  4460.90534********************
           X            0.99997   0.00752  -0.00033
           Y           -0.00752   0.99997   0.00075
           Z            0.00034  -0.00075   1.00000
 This molecule is an asymmetric top.
 Rotational symmetry number  1.
 Warning -- assumption of classical behavior for rotation
           may cause significant error
 Rotational temperatures (Kelvin)      0.01942     0.00717     0.00544
 Rotational constants (GHZ):           0.40457     0.14933     0.11332
    7 imaginary frequencies ignored.
 Zero-point vibrational energy     983266.7 (Joules/Mol)
                                  235.00638 (Kcal/Mol)
 Warning -- explicit consideration of  31 degrees of freedom as
           vibrations may cause significant error
 Vibrational temperatures:     63.68    73.65   130.73   150.61   158.81
          (Kelvin)            230.61   248.43   264.10   312.30   348.68
                              381.43   405.25   414.86   442.79   448.34
                              460.31   478.41   499.47   525.88   549.02
                              594.06   628.79   649.83   656.53   680.28
                              707.54   740.24   763.27   817.68   840.59
                              864.38   898.90   954.45   957.72   985.31
                             1040.65  1054.70  1078.38  1093.67  1222.65
                             1227.08  1278.18  1349.33  1383.06  1414.18
                             1419.96  1434.28  1454.09  1460.97  1492.58
                             1510.28  1526.78  1536.41  1543.67  1567.67
                             1575.79  1593.01  1597.51  1615.02  1629.11
                             1642.93  1667.74  1671.90  1681.26  1684.79
                             1706.43  1723.07  1733.19  1753.35  1767.59
                             1799.77  1815.63  1822.00  1835.21  1843.86
                             1856.46  1863.66  1889.86  1918.45  1925.72
                             1930.36  1937.80  1948.14  1971.95  1990.51
                             1993.99  2006.03  2023.35  2027.81  2031.67
                             2040.03  2049.43  2071.75  2091.63  2112.94
                             2121.02  2129.52  2161.13  2179.00  2213.86
                             4673.06  4689.64  4691.85  4696.09  4699.18
                             4712.74  4719.40  4724.66  4734.61  4739.95
                             4742.43  4756.06  4760.09  4768.49  4774.79
                             4780.47  4869.34  4870.73  4882.97  4895.98
                             5636.99  5639.07

 Zero-point correction=                           0.374507 (Hartree/Particle)
 Thermal correction to Energy=                    0.392622
 Thermal correction to Enthalpy=                  0.393566
 Thermal correction to Gibbs Free Energy=         0.329108
 Sum of electronic and zero-point Energies=          -1297.502409
 Sum of electronic and thermal Energies=             -1297.484294
 Sum of electronic and thermal Enthalpies=           -1297.483349
 Sum of electronic and thermal Free Energies=        -1297.547807

                     E (Thermal)             CV                S
                      KCal/Mol        Cal/Mol-Kelvin    Cal/Mol-Kelvin
 Total                  246.374             74.978            135.663
 Electronic               0.000              0.000              0.000
 Translational            0.889              2.981             43.384
 Rotational               0.889              2.981             35.106
 Vibrational            244.596             69.016             57.172
 Vibration     1          0.595              1.980              5.059
 Vibration     2          0.595              1.977              4.771
 Vibration     3          0.602              1.956              3.641
 Vibration     4          0.605              1.945              3.365
 Vibration     5          0.606              1.941              3.262
 Vibration     6          0.622              1.891              2.546
 Vibration     7          0.626              1.876              2.406
 Vibration     8          0.631              1.862              2.292
 Vibration     9          0.646              1.815              1.983
 Vibration    10          0.659              1.775              1.786
 Vibration    11          0.671              1.737              1.628
 Vibration    12          0.681              1.708              1.524
 Vibration    13          0.685              1.695              1.484
 Vibration    14          0.698              1.659              1.374
 Vibration    15          0.700              1.652              1.354
 Vibration    16          0.706              1.635              1.310
 Vibration    17          0.714              1.611              1.248
 Vibration    18          0.725              1.581              1.179
 Vibration    19          0.739              1.543              1.099
 Vibration    20          0.751              1.509              1.033
 Vibration    21          0.777              1.442              0.916
 Vibration    22          0.797              1.389              0.836
 Vibration    23          0.810              1.357              0.791
 Vibration    24          0.815              1.347              0.777
 Vibration    25          0.830              1.310              0.730
 Vibration    26          0.848              1.268              0.679
 Vibration    27          0.870              1.218              0.623
 Vibration    28          0.885              1.183              0.586
 Vibration    29          0.924              1.100              0.507
 Vibration    30          0.941              1.065              0.478
 Vibration    31          0.959              1.030              0.448

 Normal termination of Gaussian 09 at Tue Mar  1 16:30:37 2016.
