 Gaussian 09, Revision B.01,
 Gaussian 09:  EM64L-G09RevB.01 12-Aug-2010

 -------------------------------------------------
 # freq=raman b3lyp/6-31+g(2d,p) geom=connectivity
 -------------------------------------------------

 -----------------
 280 5002/5002.com
 -----------------
 Symbolic Z-matrix:
 Charge =  0 Multiplicity = 1

                         Standard orientation:
 ---------------------------------------------------------------------
 Center     Atomic      Atomic             Coordinates (Angstroms)
 Number     Number       Type             X           Y           Z
 ---------------------------------------------------------------------
      1          8           0       -5.078175   -0.425560    0.442640
      2          6           0       -3.789008   -0.148661   -0.124762
      3          6           0       -3.268311    1.247300    0.176221
      4          8           0       -4.152377    2.245779   -0.353782
      5          1           0       -5.088772    1.943989   -0.170752
      6          6           0       -1.840754    1.578092   -0.227172
      7          8           0       -1.468769    2.698076    0.589395
      8          1           0       -0.626521    3.120791    0.254460
      9          6           0       -2.981170   -2.523431   -0.281838
     10          8           0       -4.100123   -3.229330    0.273755
     11          1           0       -4.015299   -4.221970    0.183523
     12          6           0       -2.759962   -1.159665    0.351904
     13          8           0       -1.460280   -0.776027   -0.119403
     14          6           0       -0.879262    0.490832    0.223101
     15          8           0        0.264354    0.506802   -0.641541
     16          6           0        1.502663    0.200092    0.017219
     17          6           0        2.060066   -1.129047   -0.466449
     18          8           0        1.104924   -2.157725   -0.166992
     19          1           0        0.201802   -1.727296   -0.169756
     20          6           0        3.379550   -1.511106    0.181823
     21          8           0        3.799148   -2.786708   -0.324860
     22          1           0        4.712195   -2.996367    0.023810
     23          6           0        2.387244    2.616883    0.016732
     24          8           0        1.176428    3.317224   -0.301446
     25          1           0        1.439957    4.271154   -0.441069
     26          6           0        2.634670    1.156602   -0.322193
     27          8           0        3.795105    0.815944    0.450093
     28          6           0        4.373097   -0.389230   -0.073092
     29          8           0        5.551797   -0.520830    0.733154
     30          1           0        6.309343   -0.687788    0.167602
     31          1           0        4.610869   -0.293994   -1.111983
     32          1           0        3.228274   -1.597894    1.237514
     33          1           0        2.196803   -1.081265   -1.526600
     34          1           0        1.355689    0.169917    1.076647
     35          1           0        2.866806    1.071396   -1.363228
     36          1           0        3.181769    3.169278   -0.439874
     37          1           0        2.514765    2.704555    1.075482
     38          1           0       -5.697127   -0.640532   -0.258992
     39          1           0       -3.144962   -2.391864   -1.331010
     40          1           0       -2.099587   -3.113641   -0.142686
     41          1           0       -2.767268   -1.233575    1.419323
     42          1           0       -3.873682   -0.243437   -1.187188
     43          1           0       -3.304314    1.350192    1.240654
     44          1           0       -1.751193    1.793602   -1.271411
     45          1           0       -0.618727    0.561631    1.258480
 ---------------------------------------------------------------------

 SCF Done:  E(RB3LYP) =  -1297.99466002     A.U. after   13 cycles

 The electronic state is 1-A.
 Alpha  occ. eigenvalues --  -19.18544 -19.18206 -19.18081 -19.18066 -19.17247
 Alpha  occ. eigenvalues --  -19.16771 -19.16172 -19.15668 -19.14829 -19.13573
 Alpha  occ. eigenvalues --  -19.13227 -10.30660 -10.30098 -10.25980 -10.25295
 Alpha  occ. eigenvalues --  -10.24939 -10.24934 -10.24664 -10.24479 -10.24170
 Alpha  occ. eigenvalues --  -10.23814 -10.23654 -10.23649  -1.09885  -1.09328
 Alpha  occ. eigenvalues --   -1.05186  -1.04900  -1.03604  -1.03335  -1.02723
 Alpha  occ. eigenvalues --   -1.02146  -1.01812  -1.00297  -0.99923  -0.82066
 Alpha  occ. eigenvalues --   -0.79639  -0.79229  -0.77974  -0.71631  -0.69698
 Alpha  occ. eigenvalues --   -0.67122  -0.64995  -0.62937  -0.62529  -0.61510
 Alpha  occ. eigenvalues --   -0.59691  -0.56470  -0.55666  -0.54886  -0.54524
 Alpha  occ. eigenvalues --   -0.53882  -0.53480  -0.52729  -0.51682  -0.51048
 Alpha  occ. eigenvalues --   -0.50195  -0.49622  -0.48931  -0.47993  -0.46532
 Alpha  occ. eigenvalues --   -0.45726  -0.45003  -0.43887  -0.43655  -0.42942
 Alpha  occ. eigenvalues --   -0.42404  -0.41535  -0.40898  -0.40287  -0.39068
 Alpha  occ. eigenvalues --   -0.38352  -0.37653  -0.37475  -0.35954  -0.35706
 Alpha  occ. eigenvalues --   -0.35422  -0.34901  -0.34573  -0.33919  -0.33552
 Alpha  occ. eigenvalues --   -0.32865  -0.31187  -0.30802  -0.30495  -0.29451
 Alpha  occ. eigenvalues --   -0.28874  -0.28680  -0.28169  -0.27512  -0.26254
 Alpha  occ. eigenvalues --   -0.25839
 Alpha virt. eigenvalues --   -0.02305  -0.02117  -0.01473  -0.00043   0.00269
 Alpha virt. eigenvalues --    0.01249   0.01952   0.02379   0.03184   0.03592
 Alpha virt. eigenvalues --    0.03893   0.04220   0.04800   0.05566   0.05608

 Mulliken atomic charges:
              1
     1  O   -0.538236
     2  C   -0.193278
     3  C    0.338391
     4  O   -0.570405
     5  H    0.337872
     6  C    0.039496
     7  O   -0.561917
     8  H    0.384339
     9  C   -0.164784
    10  O   -0.547813
    11  H    0.342124
    12  C    0.169434
    13  O   -0.228471
    14  C    0.217954
    15  O   -0.147125
    16  C   -0.058936
    17  C    0.228882
    18  O   -0.591758
    19  H    0.388560
    20  C    0.142429
    21  O   -0.543580
    22  H    0.331010
    23  C   -0.354522
    24  O   -0.565557
    25  H    0.361038
    26  C   -0.002253
    27  O   -0.220820
    28  C    0.058748
    29  O   -0.534720
    30  H    0.331490
    31  H    0.130597
    32  H    0.131314
    33  H    0.119487
    34  H    0.114766
    35  H    0.116417
    36  H    0.136493
    37  H    0.157066
    38  H    0.341678
    39  H    0.135568
    40  H    0.145060
    41  H    0.116396
    42  H    0.112412
    43  H    0.124595
    44  H    0.139380
    45  H    0.131175
 Sum of Mulliken atomic charges =   0.00000

 Dipole moment (field-independent basis, Debye):
    X=              3.0507    Y=              0.5568    Z=             -2.5399  Tot=              4.0085
 Quadrupole moment (field-independent basis, Debye-Ang):
   XX=           -115.7120   YY=           -134.4476   ZZ=           -139.9778
   XY=             15.5408   XZ=             -0.6355   YZ=             -3.0373

  Exact polarizability: 233.642  -1.118 196.778   0.254  -0.169 143.742
 Approx polarizability: 274.070  -0.017 255.077  -0.566  -0.254 239.681

 ******    7 imaginary frequencies (negative Signs) ******

                     1                      2                      3
                     A                      A                      A
 Frequencies --  -300.1356              -253.6992              -251.8295
 Red. masses --     1.6893                 1.1922                 1.3101
 Frc consts  --     0.0897                 0.0452                 0.0490
 IR Inten    --     1.0796                74.5189               118.9941
 Raman Activ --     0.0421                 0.9014                 0.5647

                     4                      5                      6
                     A                      A                      A
 Frequencies --  -201.4145               -62.0931               -42.5738
 Red. masses --     1.7095                 6.8869                 6.2155
 Frc consts  --     0.0409                 0.0156                 0.0066
 IR Inten    --    19.5010                 0.4598                 0.5720
 Raman Activ --     0.3380                 0.0360                 0.0248

                     7                      8                      9
                     A                      A                      A
 Frequencies --   -14.3497                46.1204                54.4540
 Red. masses --     6.5655                 6.9190                 5.9457
 Frc consts  --     0.0008                 0.0087                 0.0104
 IR Inten    --     0.5851                 0.2110                 2.9239
 Raman Activ --     0.0399                 0.0328                 0.1186

                    10                     11                     12
                     A                      A                      A
 Frequencies --    74.7337                84.2316               134.1658
 Red. masses --     6.4603                 6.8821                 5.8663
 Frc consts  --     0.0213                 0.0288                 0.0622
 IR Inten    --     0.9323                 0.3749                 1.0264
 Raman Activ --     0.1748                 0.0308                 0.0784

                    13                     14                     15
                     A                      A                      A
 Frequencies --   145.7901               181.1423               186.1120
 Red. masses --     6.2167                 7.1854                 6.1516
 Frc consts  --     0.0779                 0.1389                 0.1255
 IR Inten    --     1.0264                 0.2705                 0.1044
 Raman Activ --     0.4573                 1.0832                 0.9329

                    16                     17                     18
                     A                      A                      A
 Frequencies --   200.1094               230.6730               250.6699
 Red. masses --     5.7790                 6.1787                 4.6213
 Frc consts  --     0.1363                 0.1937                 0.1711
 IR Inten    --     3.7983                 4.9115                18.3475
 Raman Activ --     0.1320                 0.6341                 0.3861

                    19                     20                     21
                     A                      A                      A
 Frequencies --   278.4439               279.3147               298.5300
 Red. masses --     4.6835                 4.6343                 6.5305
 Frc consts  --     0.2139                 0.2130                 0.3429
 IR Inten    --     3.5961                 0.5897                 0.2034
 Raman Activ --     0.1940                 0.2902                 0.2225

                    22                     23                     24
                     A                      A                      A
 Frequencies --   311.0819               319.8744               333.6266
 Red. masses --     5.3099                 5.4119                 6.1775
 Frc consts  --     0.3028                 0.3263                 0.4051
 IR Inten    --     5.9886                 1.7712                 2.2087
 Raman Activ --     0.7430                 1.7918                 2.4778

                    25                     26                     27
                     A                      A                      A
 Frequencies --   342.9984               370.3697               382.0422
 Red. masses --     6.6127                 4.8864                 6.6151
 Frc consts  --     0.4584                 0.3949                 0.5689
 IR Inten    --     6.3475                 8.9471                 0.9599
 Raman Activ --     5.5951                 0.7082                 1.6264

                    28                     29                     30
                     A                      A                      A
 Frequencies --   410.3665               421.0986               433.4913
 Red. masses --     6.6342                 4.5758                 4.6012
 Frc consts  --     0.6582                 0.4781                 0.5094
 IR Inten    --     3.7414                 5.7354                 7.5831
 Raman Activ --     6.7632                 0.7314                 2.5632

                    31                     32                     33
                     A                      A                      A
 Frequencies --   451.9694               486.4183               497.8218
 Red. masses --     4.8622                 4.6944                 4.0905
 Frc consts  --     0.5852                 0.6544                 0.5973
 IR Inten    --     2.5288                 5.4120                11.1156
 Raman Activ --     1.2301                 2.8101                 1.7749

                    34                     35                     36
                     A                      A                      A
 Frequencies --   524.5192               550.1164               574.8980
 Red. masses --     3.5831                 3.0304                 4.4193
 Frc consts  --     0.5808                 0.5403                 0.8606
 IR Inten    --    14.7592                11.4993                14.3241
 Raman Activ --     3.1098                 2.3330                 2.3058

                    37                     38                     39
                     A                      A                      A
 Frequencies --   597.2823               608.1879               629.9097
 Red. masses --     2.8533                 4.6339                 6.0901
 Frc consts  --     0.5997                 1.0099                 1.4237
 IR Inten    --    24.9469                 8.2652                24.0969
 Raman Activ --     0.0898                 0.7118                 0.7662

                    40                     41                     42
                     A                      A                      A
 Frequencies --   653.0811               679.6647               696.7453
 Red. masses --     4.2690                 1.2573                 2.8572
 Frc consts  --     1.0728                 0.3422                 0.8172
 IR Inten    --    13.0405                92.9510                44.6703
 Raman Activ --     0.2023                 1.4328                 1.0941

                    43                     44                     45
                     A                      A                      A
 Frequencies --   701.3307               724.9914               750.3494
 Red. masses --     1.1220                 1.0659                 1.0601
 Frc consts  --     0.3252                 0.3301                 0.3517
 IR Inten    --    87.1975                94.6854                87.6129
 Raman Activ --     2.0448                 1.9005                 1.7352

                    46                     47                     48
                     A                      A                      A
 Frequencies --   801.2853               806.2934               859.8375
 Red. masses --     1.0844                 1.0709                 1.7430
 Frc consts  --     0.4102                 0.4102                 0.7592
 IR Inten    --    58.1623               101.3382                 5.0026
 Raman Activ --     0.3932                 1.5432                 0.5364

                    49                     50                     51
                     A                      A                      A
 Frequencies --   861.4303               907.3612               950.6378
 Red. masses --     1.7133                 5.8035                 5.0805
 Frc consts  --     0.7491                 2.8151                 2.7051
 IR Inten    --     1.6702               117.1239                49.5762
 Raman Activ --     1.7098                 3.1533                 0.7255

                    52                     53                     54
                     A                      A                      A
 Frequencies --   979.3754               985.2978               991.0362
 Red. masses --     5.2221                 4.8754                 6.6270
 Frc consts  --     2.9512                 2.7886                 3.8348
 IR Inten    --   226.2212                12.1792               128.5295
 Raman Activ --     3.3959                 3.0018                 3.6047

                    55                     56                     57
                     A                      A                      A
 Frequencies --  1000.9928              1014.1020              1021.1902
 Red. masses --     7.6875                 6.4151                 5.6839
 Frc consts  --     4.5384                 3.8870                 3.4923
 IR Inten    --   297.9157                26.0992               143.4432
 Raman Activ --     2.1277                 2.0778                 4.2830

                    58                     59                     60
                     A                      A                      A
 Frequencies --  1038.3876              1047.3115              1055.5155
 Red. masses --     5.4117                 6.4688                 3.3673
 Frc consts  --     3.4380                 4.1805                 2.2103
 IR Inten    --   197.0130               121.0965                15.1563
 Raman Activ --     2.6118                 8.5116                13.4236

                    61                     62                     63
                     A                      A                      A
 Frequencies --  1065.5379              1072.2097              1077.2040
 Red. masses --     6.2580                 3.2064                 4.0163
 Frc consts  --     4.1862                 2.1718                 2.7458
 IR Inten    --   197.1679                12.4660               137.2257
 Raman Activ --     1.4052                11.1832                 4.0779

                    64                     65                     66
                     A                      A                      A
 Frequencies --  1078.8730              1097.8056              1112.5875
 Red. masses --     3.0379                 2.4589                 2.5642
 Frc consts  --     2.0834                 1.7460                 1.8701
 IR Inten    --    29.4225                35.3996                21.6172
 Raman Activ --     1.0801                10.2777                 6.5270

                    67                     68                     69
                     A                      A                      A
 Frequencies --  1116.3471              1120.9136              1122.7081
 Red. masses --     2.2710                 2.7303                 2.0852
 Frc consts  --     1.6675                 2.0212                 1.5485
 IR Inten    --     6.6581                11.9927                32.3827
 Raman Activ --     8.4076                 1.2224                 7.7374

                    70                     71                     72
                     A                      A                      A
 Frequencies --  1133.4003              1141.5119              1147.0058
 Red. masses --     3.0012                 1.8795                 1.9876
 Frc consts  --     2.2715                 1.4430                 1.5406
 IR Inten    --     3.7668                23.0678                21.4452
 Raman Activ --     5.2833                 1.4938                 8.8376

                    73                     74                     75
                     A                      A                      A
 Frequencies --  1164.3699              1172.5540              1191.4433
 Red. masses --     1.6549                 1.8657                 1.7840
 Frc consts  --     1.3219                 1.5114                 1.4921
 IR Inten    --    12.5420                10.3201                14.8525
 Raman Activ --     0.9906                 3.3959                 2.0283

                    76                     77                     78
                     A                      A                      A
 Frequencies --  1196.3504              1205.4338              1209.7122
 Red. masses --     1.1979                 1.4456                 1.4628
 Frc consts  --     1.0102                 1.2376                 1.2612
 IR Inten    --     8.1425                 2.8878                10.0820
 Raman Activ --     1.9225                 1.5861                 1.4684

                    79                     80                     81
                     A                      A                      A
 Frequencies --  1225.3837              1235.1809              1250.1418
 Red. masses --     1.1913                 1.2650                 1.3067
 Frc consts  --     1.0539                 1.1371                 1.2033
 IR Inten    --     4.0822                11.8074                20.7724
 Raman Activ --     2.4286                 1.6499                 0.9675

                    82                     83                     84
                     A                      A                      A
 Frequencies --  1251.6144              1274.3702              1276.8086
 Red. masses --     1.2417                 1.3050                 1.3034
 Frc consts  --     1.1461                 1.2487                 1.2520
 IR Inten    --    10.3101                 5.7380                 6.3610
 Raman Activ --     3.2950                 2.1243                 1.5520

                    85                     86                     87
                     A                      A                      A
 Frequencies --  1286.0432              1300.7902              1309.0114
 Red. masses --     1.3965                 1.2914                 1.3385
 Frc consts  --     1.3609                 1.2874                 1.3513
 IR Inten    --    45.6760                11.4038                21.9931
 Raman Activ --     3.8665                 0.5518                 3.4130

                    88                     89                     90
                     A                      A                      A
 Frequencies --  1313.3722              1317.2281              1319.4115
 Red. masses --     1.2554                 1.1755                 1.2177
 Frc consts  --     1.2759                 1.2017                 1.2489
 IR Inten    --    39.2995                61.2025                 3.7730
 Raman Activ --     4.7878                 3.2350                 9.2442

                    91                     92                     93
                     A                      A                      A
 Frequencies --  1323.6716              1330.7529              1341.1211
 Red. masses --     1.4143                 1.3036                 1.3071
 Frc consts  --     1.4600                 1.3601                 1.3851
 IR Inten    --    37.3183                14.9723                14.8650
 Raman Activ --     4.5623                 5.1438                 1.9642

                    94                     95                     96
                     A                      A                      A
 Frequencies --  1357.0153              1365.5027              1374.9594
 Red. masses --     1.7229                 1.3610                 1.3831
 Frc consts  --     1.8693                 1.4952                 1.5406
 IR Inten    --    10.2459                 2.8703                 4.0242
 Raman Activ --     8.7740                 5.0419                 5.8847

                    97                     98                     99
                     A                      A                      A
 Frequencies --  1377.5405              1393.0715              1406.7662
 Red. masses --     1.2265                 1.3800                 1.4044
 Frc consts  --     1.3713                 1.5779                 1.6375
 IR Inten    --    34.2265                 4.2009                 9.1392
 Raman Activ --     3.9590                 5.8628                 2.7469

                   100                    101                    102
                     A                      A                      A
 Frequencies --  1424.3347              1436.8050              1441.7444
 Red. masses --     1.4842                 1.3498                 1.3897
 Frc consts  --     1.7741                 1.6417                 1.7019
 IR Inten    --    36.8871                33.0519                22.0083
 Raman Activ --     1.3935                 0.5451                 2.8482

                   103                    104                    105
                     A                      A                      A
 Frequencies --  1461.1925              1468.3240              1476.2183
 Red. masses --     1.3505                 1.1313                 1.0905
 Frc consts  --     1.6988                 1.4370                 1.4001
 IR Inten    --    30.9352                 4.2329                 5.3757
 Raman Activ --     1.6053                 4.1798                 3.5756

                   106                    107                    108
                     A                      A                      A
 Frequencies --  1498.2568              1521.8233              3257.8291
 Red. masses --     1.3020                 1.2261                 1.0575
 Frc consts  --     1.7220                 1.6730                 6.6131
 IR Inten    --    37.3909                59.0353                27.4297
 Raman Activ --     1.1730                 2.4748                58.2277

                   109                    110                    111
                     A                      A                      A
 Frequencies --  3258.0957              3267.5605              3267.6049
 Red. masses --     1.0588                 1.0806                 1.0832
 Frc consts  --     6.6219                 6.7979                 6.8141
 IR Inten    --    55.1984                 3.5060                22.1527
 Raman Activ --    73.0143               144.2319                15.6904

                   112                    113                    114
                     A                      A                      A
 Frequencies --  3275.4340              3279.5518              3285.6112
 Red. masses --     1.0820                 1.0841                 1.0846
 Frc consts  --     6.8392                 6.8700                 6.8987
 IR Inten    --    55.6673                17.0213                12.8393
 Raman Activ --   107.4083                32.1858               147.8995

                   115                    116                    117
                     A                      A                      A
 Frequencies --  3290.9749              3292.0089              3296.0053
 Red. masses --     1.0858                 1.0789                 1.0805
 Frc consts  --     6.9287                 6.8891                 6.9160
 IR Inten    --    21.1165               242.1625               106.9483
 Raman Activ --    12.5059               103.6974                86.5676

                   118                    119                    120
                     A                      A                      A
 Frequencies --  3301.4732              3305.4631              3311.0736
 Red. masses --     1.0878                 1.0879                 1.0931
 Frc consts  --     6.9859                 7.0036                 7.0607
 IR Inten    --    25.8355                24.6225                11.0307
 Raman Activ --    34.9776               120.6374                19.1897

                   121                    122                    123
                     A                      A                      A
 Frequencies --  3312.4710              3319.4509              3321.1209
 Red. masses --     1.0941                 1.1055                 1.0691
 Frc consts  --     7.0730                 7.1773                 6.9479
 IR Inten    --    87.9350                59.5751               549.1291
 Raman Activ --    29.7448                37.4664               138.4627

                   124                    125                    126
                     A                      A                      A
 Frequencies --  3354.9231              3364.3906              3372.8342
 Red. masses --     1.0656                 1.0688                 1.0661
 Frc consts  --     7.0667                 7.1281                 7.1459
 IR Inten    --    29.7367                42.4256                31.9731
 Raman Activ --   112.5600               179.5405               152.0813

                   127                    128                    129
                     A                      A                      A
 Frequencies --  3377.7095              3889.6663              3892.8268
 Red. masses --     1.0675                 1.0677                 1.0674
 Frc consts  --     7.1755                 9.5174                 9.5301
 IR Inten    --    50.6365                79.2674                68.8130
 Raman Activ --   136.9681                84.3018               119.2756

 - Thermochemistry -
 -------------------
 Temperature   298.150 Kelvin.  Pressure   1.00000 Atm.
 Atom     1 has atomic number  8 and mass  15.99491

 Molecular mass:   342.11621 amu.
 Principal axes and moments of inertia in atomic units:
                           1         2         3
     Eigenvalues --  4386.06595********************
           X            0.99997   0.00784  -0.00034
           Y           -0.00784   0.99997   0.00052
           Z            0.00035  -0.00051   1.00000
 This molecule is an asymmetric top.
 Rotational symmetry number  1.
 Warning -- assumption of classical behavior for rotation
           may cause significant error
 Rotational temperatures (Kelvin)      0.01975     0.00696     0.00529
 Rotational constants (GHZ):           0.41147     0.14499     0.11014
    7 imaginary frequencies ignored.
 Zero-point vibrational energy     974330.2 (Joules/Mol)
                                  232.87050 (Kcal/Mol)
 Warning -- explicit consideration of  31 degrees of freedom as
           vibrations may cause significant error
 Vibrational temperatures:     66.36    78.35   107.53   121.19   193.03
          (Kelvin)            209.76   260.62   267.77   287.91   331.89
                              360.66   400.62   401.87   429.52   447.58
                              460.23   480.01   493.50   532.88   549.67
                              590.43   605.87   623.70   650.28   699.85
                              716.25   754.67   791.49   827.15   859.36
                              875.05   906.30   939.64   977.88  1002.46
                             1009.06  1043.10  1079.58  1152.87  1160.07
                             1237.11  1239.40  1305.49  1367.75  1409.10
                             1417.62  1425.88  1440.20  1459.06  1469.26
                             1494.01  1506.85  1518.65  1533.07  1542.67
                             1549.85  1552.26  1579.50  1600.76  1606.17
                             1612.74  1615.32  1630.71  1642.38  1650.28
                             1675.27  1687.04  1714.22  1721.28  1734.35
                             1740.50  1763.05  1777.15  1798.67  1800.79
                             1833.53  1837.04  1850.33  1871.54  1883.37
                             1889.65  1895.20  1898.34  1904.47  1914.65
                             1929.57  1952.44  1964.65  1978.26  1981.97
                             2004.32  2024.02  2049.30  2067.24  2074.35
                             2102.33  2112.59  2123.95  2155.65  2189.56
                             4687.28  4687.67  4701.28  4701.35  4712.61
                             4718.54  4727.26  4734.97  4736.46  4742.21
                             4750.08  4755.82  4763.89  4765.90  4775.94
                             4778.35  4826.98  4840.60  4852.75  4859.76
                             5596.36  5600.90

 Zero-point correction=                           0.371103 (Hartree/Particle)
 Thermal correction to Energy=                    0.389401
 Thermal correction to Enthalpy=                  0.390345
 Thermal correction to Gibbs Free Energy=         0.325428
 Sum of electronic and zero-point Energies=          -1297.623557
 Sum of electronic and thermal Energies=             -1297.605259
 Sum of electronic and thermal Enthalpies=           -1297.604315
 Sum of electronic and thermal Free Energies=        -1297.669232

                     E (Thermal)             CV                S
                      KCal/Mol        Cal/Mol-Kelvin    Cal/Mol-Kelvin
 Total                  244.353             75.811            136.631
 Electronic               0.000              0.000              0.000
 Translational            0.889              2.981             43.384
 Rotational               0.889              2.981             35.147
 Vibrational            242.576             69.850             58.100
 Vibration     1          0.595              1.979              4.977
 Vibration     2          0.596              1.976              4.649
 Vibration     3          0.599              1.966              4.025
 Vibration     4          0.601              1.960              3.790
 Vibration     5          0.613              1.919              2.885
 Vibration     6          0.617              1.907              2.726
 Vibration     7          0.630              1.865              2.317
 Vibration     8          0.632              1.859              2.266
 Vibration     9          0.638              1.840              2.132
 Vibration    10          0.652              1.794              1.874
 Vibration    11          0.663              1.762              1.726
 Vibration    12          0.679              1.713              1.543
 Vibration    13          0.680              1.712              1.538
 Vibration    14          0.692              1.676              1.425
 Vibration    15          0.700              1.653              1.357
 Vibration    16          0.706              1.636              1.311
 Vibration    17          0.715              1.608              1.242
 Vibration    18          0.722              1.590              1.198
 Vibration    19          0.742              1.533              1.078
 Vibration    20          0.752              1.508              1.031
 Vibration    21          0.775              1.448              0.925
 Vibration    22          0.784              1.424              0.888
 Vibration    23          0.794              1.397              0.847
 Vibration    24          0.811              1.357              0.790
 Vibration    25          0.842              1.280              0.693
 Vibration    26          0.853              1.255              0.664
 Vibration    27          0.879              1.196              0.600
 Vibration    28          0.905              1.139              0.544
 Vibration    29          0.931              1.086              0.495
 Vibration    30          0.955              1.038              0.454
 Vibration    31          0.967              1.014              0.436

 Normal termination of Gaussian 09 at Mon Mar 21 22:55:01 2016.
