 Gaussian 09, Revision B.01,
 Gaussian 09:  EM64L-G09RevB.01 12-Aug-2010

 -------------------------------------------------
 # freq=raman b3lyp/6-31+g(2d,p) geom=connectivity
 -------------------------------------------------

 -----------------
 450 7767/7767.com
 -----------------
 Symbolic Z-matrix:
 Charge =  0 Multiplicity = 1

                         Standard orientation:
 ---------------------------------------------------------------------
 Center     Atomic      Atomic             Coordinates (Angstroms)
 Number     Number       Type             X           Y           Z
 ---------------------------------------------------------------------
      1          8           0        5.015887   -0.367954   -0.843102
      2          6           0        3.943038   -0.040343    0.051876
      3          6           0        3.313832    1.227229   -0.501400
      4          8           0        4.142666    2.391479   -0.371587
      5          1           0        5.067300    2.080281   -0.593562
      6          6           0        1.954414    1.557977    0.092882
      7          8           0        1.142894    2.586045   -0.492223
      8          1           0        1.693644    3.359479   -0.804851
      9          6           0        3.331201   -2.499551    0.538011
     10          8           0        2.198771   -3.370385    0.676663
     11          1           0        2.584281   -4.214027    1.049327
     12          6           0        2.868764   -1.113232    0.118248
     13          8           0        1.825036   -0.655025    0.988515
     14          6           0        1.139488    0.276412    0.138899
     15          8           0       -0.168355    0.413456    0.713635
     16          6           0       -1.319902    0.241270   -0.125991
     17          6           0       -1.780645   -1.206057   -0.084290
     18          8           0       -0.960666   -2.173393   -0.755944
     19          1           0       -0.200088   -2.443542   -0.164534
     20          6           0       -3.189499   -1.432472   -0.605802
     21          8           0       -3.537039   -2.783830   -0.271362
     22          1           0       -2.964054   -3.291903   -0.914710
     23          6           0       -1.953202    2.551056    0.272014
     24          8           0       -2.841270    3.660886    0.461418
     25          1           0       -2.892385    3.944193    1.419431
     26          6           0       -2.414960    1.114952    0.464785
     27          8           0       -3.710365    0.868917   -0.101016
     28          6           0       -4.149670   -0.483059    0.092269
     29          8           0       -5.481881   -0.616074   -0.424439
     30          1           0        5.801449    0.124894   -0.594922
     31          1           0        3.845767   -2.434174    1.473878
     32          1           0        3.993259   -2.893228   -0.204686
     33          1           0        2.450441   -1.203393   -0.862454
     34          1           0        4.331514    0.145529    1.031385
     35          1           0        3.165024    1.065809   -1.548634
     36          1           0        2.130111    1.851090    1.106842
     37          1           0        1.056893   -0.131510   -0.846838
     38          1           0       -6.079652   -0.065145    0.086195
     39          1           0       -4.157612   -0.701752    1.139652
     40          1           0       -3.224038   -1.288489   -1.665507
     41          1           0       -1.790807   -1.484348    0.948837
     42          1           0       -1.101733    0.538942   -1.130328
     43          1           0       -2.468438    0.919049    1.515338
     44          1           0       -1.577488    2.623179   -0.727255
     45          1           0       -1.125970    2.700981    0.933912
 ---------------------------------------------------------------------

 SCF Done:  E(RB3LYP) =  -1297.99292644     A.U. after   14 cycles

 The electronic state is 1-A.
 Alpha  occ. eigenvalues --  -19.19361 -19.18673 -19.18341 -19.17546 -19.17168
 Alpha  occ. eigenvalues --  -19.16741 -19.15968 -19.15681 -19.15315 -19.14461
 Alpha  occ. eigenvalues --  -19.14415 -10.30290 -10.28519 -10.27278 -10.26445
 Alpha  occ. eigenvalues --  -10.26101 -10.25396 -10.25173 -10.24536 -10.23839
 Alpha  occ. eigenvalues --  -10.23485 -10.23401 -10.21840  -1.09858  -1.07677
 Alpha  occ. eigenvalues --   -1.06679  -1.05196  -1.04490  -1.03701  -1.03250
 Alpha  occ. eigenvalues --   -1.02730  -1.01030  -1.00428  -0.99971  -0.82217
 Alpha  occ. eigenvalues --   -0.81550  -0.78375  -0.77370  -0.71937  -0.69413
 Alpha  occ. eigenvalues --   -0.67268  -0.64866  -0.63224  -0.62293  -0.61452
 Alpha  occ. eigenvalues --   -0.59531  -0.57233  -0.55806  -0.55045  -0.54057
 Alpha  occ. eigenvalues --   -0.53956  -0.53123  -0.52927  -0.51911  -0.50783
 Alpha  occ. eigenvalues --   -0.50388  -0.48563  -0.48122  -0.46988  -0.46433
 Alpha  occ. eigenvalues --   -0.45999  -0.45365  -0.44976  -0.43306  -0.42895
 Alpha  occ. eigenvalues --   -0.42831  -0.42212  -0.41324  -0.40025  -0.39488
 Alpha  occ. eigenvalues --   -0.38911  -0.38613  -0.36960  -0.36826  -0.36078
 Alpha  occ. eigenvalues --   -0.35344  -0.35124  -0.34251  -0.33645  -0.33138
 Alpha  occ. eigenvalues --   -0.31874  -0.31404  -0.31167  -0.30083  -0.30011
 Alpha  occ. eigenvalues --   -0.29723  -0.29448  -0.28736  -0.27395  -0.26591
 Alpha  occ. eigenvalues --   -0.25676
 Alpha virt. eigenvalues --   -0.04332  -0.02036  -0.00467  -0.00416   0.00753
 Alpha virt. eigenvalues --    0.01370   0.01680   0.02045   0.02908   0.03294
 Alpha virt. eigenvalues --    0.03915   0.04294   0.04837   0.05436   0.05914

 Mulliken atomic charges:
              1
     1  O   -0.528183
     2  C   -0.143904
     3  C    0.228256
     4  O   -0.551089
     5  H    0.301376
     6  C    0.076893
     7  O   -0.567592
     8  H    0.361462
     9  C   -0.294052
    10  O   -0.483199
    11  H    0.341658
    12  C    0.212823
    13  O   -0.245472
    14  C    0.023756
    15  O   -0.277890
    16  C    0.383366
    17  C    0.111597
    18  O   -0.606137
    19  H    0.367115
    20  C   -0.013035
    21  O   -0.488959
    22  H    0.344182
    23  C   -0.204249
    24  O   -0.520788
    25  H    0.321012
    26  C   -0.077793
    27  O   -0.289283
    28  C    0.239217
    29  O   -0.526037
    30  H    0.321286
    31  H    0.136264
    32  H    0.159532
    33  H    0.115535
    34  H    0.134196
    35  H    0.133365
    36  H    0.129642
    37  H    0.129825
    38  H    0.325374
    39  H    0.121744
    40  H    0.132544
    41  H    0.131235
    42  H    0.113910
    43  H    0.107043
    44  H    0.149287
    45  H    0.164167
 Sum of Mulliken atomic charges =   0.00000

 Dipole moment (field-independent basis, Debye):
    X=              8.6426    Y=             -0.4936    Z=              2.1016  Tot=              8.9082
 Quadrupole moment (field-independent basis, Debye-Ang):
   XX=           -122.9615   YY=           -139.1199   ZZ=           -135.4869
   XY=             -7.2191   XZ=             -8.0291   YZ=              1.4798

  Exact polarizability: 225.079  -0.497 198.504  -1.733   0.487 145.856
 Approx polarizability: 268.533  -2.415 257.699  -0.712   0.932 243.122

 ******    6 imaginary frequencies (negative Signs) ******

                     1                      2                      3
                     A                      A                      A
 Frequencies --  -235.5306              -227.5127              -200.4593
 Red. masses --     1.2804                 1.6206                 1.9359
 Frc consts  --     0.0419                 0.0494                 0.0458
 IR Inten    --    95.6141                 3.9692                 2.1131
 Raman Activ --     0.8909                 0.1808                 0.1432

                     4                      5                      6
                     A                      A                      A
 Frequencies --  -180.7902               -65.9166               -48.9279
 Red. masses --     1.0892                 6.4291                 6.1758
 Frc consts  --     0.0210                 0.0165                 0.0087
 IR Inten    --   120.6304                 3.6098                 0.1818
 Raman Activ --     1.3724                 0.0596                 0.1329

                     7                      8                      9
                     A                      A                      A
 Frequencies --    12.1274                23.3394                61.5816
 Red. masses --     6.4408                 6.7025                 6.2718
 Frc consts  --     0.0006                 0.0022                 0.0140
 IR Inten    --     0.8832                 0.3111                 0.7498
 Raman Activ --     0.0643                 0.0328                 0.1505

                    10                     11                     12
                     A                      A                      A
 Frequencies --    67.4423                97.9177               108.7977
 Red. masses --     6.2726                 6.7219                 6.2966
 Frc consts  --     0.0168                 0.0380                 0.0439
 IR Inten    --     0.7742                 0.9044                 1.9148
 Raman Activ --     0.0383                 0.0749                 0.4058

                    13                     14                     15
                     A                      A                      A
 Frequencies --   136.1908               156.6645               169.9150
 Red. masses --     7.1997                 5.4348                 5.8796
 Frc consts  --     0.0787                 0.0786                 0.1000
 IR Inten    --     0.6803                 0.9861                 0.4324
 Raman Activ --     0.4504                 0.1402                 0.4731

                    16                     17                     18
                     A                      A                      A
 Frequencies --   205.7139               225.5365               267.2977
 Red. masses --     7.0194                 4.6319                 5.2386
 Frc consts  --     0.1750                 0.1388                 0.2205
 IR Inten    --     1.6829                 3.9519                 3.9457
 Raman Activ --     2.1559                 0.4110                 1.1001

                    19                     20                     21
                     A                      A                      A
 Frequencies --   281.1030               283.1805               300.3629
 Red. masses --     3.9976                 5.9996                 5.2130
 Frc consts  --     0.1861                 0.2835                 0.2771
 IR Inten    --    13.1629                 1.9113                 3.9952
 Raman Activ --     0.9205                 0.4540                 0.2951

                    22                     23                     24
                     A                      A                      A
 Frequencies --   312.8318               316.0397               331.5288
 Red. masses --     5.3299                 6.2440                 6.7951
 Frc consts  --     0.3073                 0.3674                 0.4400
 IR Inten    --     7.4128                 4.3251                 1.4463
 Raman Activ --     1.1860                 0.2233                 4.7134

                    25                     26                     27
                     A                      A                      A
 Frequencies --   350.3719               359.2886               384.1991
 Red. masses --     6.4878                 4.7940                 4.0893
 Frc consts  --     0.4693                 0.3646                 0.3556
 IR Inten    --     2.9764                12.7620                 1.8415
 Raman Activ --     0.4000                 3.3762                 0.6372

                    28                     29                     30
                     A                      A                      A
 Frequencies --   415.4635               430.9236               431.2104
 Red. masses --     5.6618                 5.7834                 6.6410
 Frc consts  --     0.5758                 0.6327                 0.7275
 IR Inten    --     1.5455                 5.9556                 1.2760
 Raman Activ --     3.8654                 1.1074                 2.8148

                    31                     32                     33
                     A                      A                      A
 Frequencies --   463.5831               476.3903               498.5006
 Red. masses --     4.4387                 4.0492                 5.8048
 Frc consts  --     0.5620                 0.5414                 0.8499
 IR Inten    --    18.8673                 5.0184                 2.7806
 Raman Activ --     3.8723                 1.6560                 1.3553

                    34                     35                     36
                     A                      A                      A
 Frequencies --   527.4304               538.9018               558.3077
 Red. masses --     3.6237                 4.8632                 4.2467
 Frc consts  --     0.5939                 0.8321                 0.7799
 IR Inten    --    26.0851                15.7460                29.9160
 Raman Activ --     5.4861                 0.7743                 3.3116

                    37                     38                     39
                     A                      A                      A
 Frequencies --   580.3004               593.2026               606.9396
 Red. masses --     3.1328                 3.0412                 3.1963
 Frc consts  --     0.6216                 0.6305                 0.6937
 IR Inten    --     4.4881                12.6880                 5.3116
 Raman Activ --     0.3345                 0.6804                 0.4660

                    40                     41                     42
                     A                      A                      A
 Frequencies --   644.6183               661.9009               696.2943
 Red. masses --     3.3860                 4.7459                 1.0757
 Frc consts  --     0.8290                 1.2250                 0.3073
 IR Inten    --    45.8957                19.6432                99.1360
 Raman Activ --     0.3366                 0.4806                 0.4620

                    43                     44                     45
                     A                      A                      A
 Frequencies --   702.8031               709.5074               719.2631
 Red. masses --     1.0672                 1.1025                 1.1334
 Frc consts  --     0.3106                 0.3270                 0.3455
 IR Inten    --    83.7936                69.6147                84.1268
 Raman Activ --     2.9084                 1.5233                 1.0844

                    46                     47                     48
                     A                      A                      A
 Frequencies --   720.6346               790.4798               830.1065
 Red. masses --     1.1299                 1.0707                 2.4789
 Frc consts  --     0.3457                 0.3942                 1.0064
 IR Inten    --   178.4740                80.5871                 2.0673
 Raman Activ --     1.8731                 1.4504                 1.6907

                    49                     50                     51
                     A                      A                      A
 Frequencies --   857.8112               957.4204               959.4367
 Red. masses --     2.7197                 5.8607                 6.3123
 Frc consts  --     1.1791                 3.1652                 3.4235
 IR Inten    --    12.1650                28.1945               318.7699
 Raman Activ --     3.8158                 2.9112                 2.3502

                    52                     53                     54
                     A                      A                      A
 Frequencies --   974.1522               982.1792               993.5149
 Red. masses --     4.9837                 4.9539                 3.7903
 Frc consts  --     2.7865                 2.8157                 2.2043
 IR Inten    --    99.7388                64.1130                25.2705
 Raman Activ --     2.4722                 1.2511                 1.7318

                    55                     56                     57
                     A                      A                      A
 Frequencies --  1003.2370              1011.5373              1018.1870
 Red. masses --     8.3782                 6.9843                 4.0478
 Frc consts  --     4.9683                 4.2105                 2.4725
 IR Inten    --   309.1592               186.5057               145.8735
 Raman Activ --     0.8274                 1.3366                 5.8369

                    58                     59                     60
                     A                      A                      A
 Frequencies --  1039.0299              1039.8835              1061.7864
 Red. masses --     3.1349                 3.2999                 4.8901
 Frc consts  --     1.9940                 2.1025                 3.2482
 IR Inten    --    58.0963               234.7548                32.3631
 Raman Activ --     1.9521                 3.4454                13.6692

                    61                     62                     63
                     A                      A                      A
 Frequencies --  1065.3355              1072.2363              1075.6672
 Red. masses --     3.8837                 4.4825                 3.8990
 Frc consts  --     2.5970                 3.0364                 2.6580
 IR Inten    --    75.0194                36.3861                12.9520
 Raman Activ --     5.6096                 5.6087                 2.5459

                    64                     65                     66
                     A                      A                      A
 Frequencies --  1080.9086              1100.7207              1104.3360
 Red. masses --     3.5515                 2.9269                 2.6385
 Frc consts  --     2.4447                 2.0893                 1.8959
 IR Inten    --   122.4200                57.7914                30.2174
 Raman Activ --    13.3395                 3.0463                 5.8900

                    67                     68                     69
                     A                      A                      A
 Frequencies --  1113.8991              1126.3810              1133.4121
 Red. masses --     2.4283                 3.5270                 2.0946
 Frc consts  --     1.7752                 2.6365                 1.5853
 IR Inten    --    16.1688                22.4868                 2.1627
 Raman Activ --     3.9684                 1.4596                 4.4705

                    70                     71                     72
                     A                      A                      A
 Frequencies --  1141.6953              1152.2571              1153.7480
 Red. masses --     2.2986                 2.1030                 2.7339
 Frc consts  --     1.7652                 1.6451                 2.1442
 IR Inten    --    30.1765                37.6757                37.5970
 Raman Activ --     1.1265                 2.3734                 3.9492

                    73                     74                     75
                     A                      A                      A
 Frequencies --  1163.7642              1169.9309              1184.0716
 Red. masses --     1.7319                 2.0012                 2.3108
 Frc consts  --     1.3820                 1.6139                 1.9088
 IR Inten    --     4.7469                 4.1811                17.9393
 Raman Activ --     0.6897                 2.5031                 2.9519

                    76                     77                     78
                     A                      A                      A
 Frequencies --  1200.7030              1206.0742              1233.2563
 Red. masses --     1.4569                 1.3272                 1.2575
 Frc consts  --     1.2375                 1.1374                 1.1269
 IR Inten    --     4.0367                 8.7508                14.8297
 Raman Activ --     3.7596                 2.7949                 0.6641

                    79                     80                     81
                     A                      A                      A
 Frequencies --  1238.8722              1251.8424              1265.9882
 Red. masses --     1.2700                 1.2667                 1.1632
 Frc consts  --     1.1484                 1.1696                 1.0984
 IR Inten    --     8.2674                 1.6418                23.0357
 Raman Activ --     0.9759                 3.3443                 2.7202

                    82                     83                     84
                     A                      A                      A
 Frequencies --  1270.8483              1273.5057              1282.4324
 Red. masses --     1.2023                 1.3597                 1.2018
 Frc consts  --     1.1440                 1.2993                 1.1645
 IR Inten    --    14.4952                33.0895                 5.7112
 Raman Activ --     3.5814                 1.9931                 0.9814

                    85                     86                     87
                     A                      A                      A
 Frequencies --  1300.1064              1301.6850              1305.6986
 Red. masses --     1.2238                 1.3169                 1.1895
 Frc consts  --     1.2187                 1.3146                 1.1949
 IR Inten    --    18.6103                 5.7807                18.3830
 Raman Activ --     2.5853                 2.3797                 0.9711

                    88                     89                     90
                     A                      A                      A
 Frequencies --  1318.5872              1329.4914              1335.7607
 Red. masses --     1.4805                 1.5045                 1.2882
 Frc consts  --     1.5166                 1.5668                 1.3542
 IR Inten    --    13.7682                11.1730                27.3627
 Raman Activ --     9.8749                 3.6457                 3.1082

                    91                     92                     93
                     A                      A                      A
 Frequencies --  1340.3577              1345.9916              1357.6442
 Red. masses --     1.2799                 1.2452                 1.1984
 Frc consts  --     1.3548                 1.3291                 1.3015
 IR Inten    --     7.0776                 2.2968                52.3451
 Raman Activ --     1.3185                 0.9940                 4.4521

                    94                     95                     96
                     A                      A                      A
 Frequencies --  1362.9885              1375.6602              1394.4323
 Red. masses --     1.2506                 1.2486                 1.5442
 Frc consts  --     1.3689                 1.3921                 1.7691
 IR Inten    --    39.7849                 5.8316                 7.5304
 Raman Activ --     0.5697                17.0326                 4.6546

                    97                     98                     99
                     A                      A                      A
 Frequencies --  1394.9809              1408.8730              1422.8977
 Red. masses --     1.6199                 1.2878                 1.5860
 Frc consts  --     1.8573                 1.5060                 1.8919
 IR Inten    --     4.7635                 3.3192                17.7852
 Raman Activ --     3.4953                 0.2880                 4.7384

                   100                    101                    102
                     A                      A                      A
 Frequencies --  1437.7633              1441.9025              1444.5259
 Red. masses --     1.0983                 1.3002                 1.1261
 Frc consts  --     1.3377                 1.5927                 1.3845
 IR Inten    --    17.3751                23.4468                45.5754
 Raman Activ --     7.2804                 1.4360                 4.6474

                   103                    104                    105
                     A                      A                      A
 Frequencies --  1454.0817              1457.4316              1467.8473
 Red. masses --     1.1415                 1.3577                 1.1082
 Frc consts  --     1.4221                 1.6992                 1.4068
 IR Inten    --     7.4384                55.6220                 1.7707
 Raman Activ --     5.7287                 3.0096                 2.4493

                   106                    107                    108
                     A                      A                      A
 Frequencies --  1479.8601              1504.5350              3256.2742
 Red. masses --     1.3457                 1.3693                 1.0783
 Frc consts  --     1.7364                 1.8262                 6.7364
 IR Inten    --    28.0499                62.4940                 4.6319
 Raman Activ --     1.2644                 2.3038                48.3831

                   109                    110                    111
                     A                      A                      A
 Frequencies --  3261.1742              3268.0196              3270.6779
 Red. masses --     1.0623                 1.0823                 1.0811
 Frc consts  --     6.6565                 6.8102                 6.8138
 IR Inten    --    36.3049                 8.0783                 5.0656
 Raman Activ --    67.3558                41.5281               151.7051

                   112                    113                    114
                     A                      A                      A
 Frequencies --  3271.7917              3273.6821              3276.2369
 Red. masses --     1.0625                 1.0817                 1.0816
 Frc consts  --     6.7012                 6.8302                 6.8401
 IR Inten    --    20.6160                15.8471                 1.4369
 Raman Activ --    48.6519                 8.1535                17.4210

                   115                    116                    117
                     A                      A                      A
 Frequencies --  3279.0917              3285.9203              3292.5903
 Red. masses --     1.0827                 1.0852                 1.0856
 Frc consts  --     6.8588                 6.9033                 6.9342
 IR Inten    --    13.7771                 2.2711                 0.5229
 Raman Activ --   238.8431                27.2090                 8.7429

                   118                    119                    120
                     A                      A                      A
 Frequencies --  3299.1415              3303.2416              3321.6122
 Red. masses --     1.0871                 1.0867                 1.1079
 Frc consts  --     6.9714                 6.9862                 7.2019
 IR Inten    --    37.9743                77.1962                32.8522
 Raman Activ --    10.8850                13.9291                55.6652

                   121                    122                    123
                     A                      A                      A
 Frequencies --  3330.1396              3355.8401              3357.2898
 Red. masses --     1.0987                 1.0679                 1.0649
 Frc consts  --     7.1789                 7.0855                 7.0721
 IR Inten    --    38.9198               112.4251                12.1495
 Raman Activ --    48.1034               121.9576               120.2841

                   124                    125                    126
                     A                      A                      A
 Frequencies --  3363.5184              3373.8731              3377.5467
 Red. masses --     1.0751                 1.0646                 1.0662
 Frc consts  --     7.1659                 7.1401                 7.1662
 IR Inten    --    16.3090                43.6184                44.5860
 Raman Activ --    85.4904                63.5679               153.5621

                   127                    128                    129
                     A                      A                      A
 Frequencies --  3381.5881              3878.1955              3889.0592
 Red. masses --     1.0667                 1.0673                 1.0666
 Frc consts  --     7.1868                 9.4576                 9.5049
 IR Inten    --    47.2548                44.6138                57.6195
 Raman Activ --   120.8045               109.0600               131.6822

 - Thermochemistry -
 -------------------
 Temperature   298.150 Kelvin.  Pressure   1.00000 Atm.
 Atom     1 has atomic number  8 and mass  15.99491

 Molecular mass:   342.11621 amu.
 Principal axes and moments of inertia in atomic units:
                           1         2         3
     Eigenvalues --  4683.30681********************
           X            0.99998  -0.00543  -0.00213
           Y            0.00544   0.99999   0.00057
           Z            0.00212  -0.00058   1.00000
 This molecule is an asymmetric top.
 Rotational symmetry number  1.
 Warning -- assumption of classical behavior for rotation
           may cause significant error
 Rotational temperatures (Kelvin)      0.01849     0.00728     0.00547
 Rotational constants (GHZ):           0.38536     0.15171     0.11398
    6 imaginary frequencies ignored.
 Zero-point vibrational energy     974704.5 (Joules/Mol)
                                  232.95996 (Kcal/Mol)
 Warning -- explicit consideration of  33 degrees of freedom as
           vibrations may cause significant error
 Vibrational temperatures:     17.45    33.58    88.60    97.03   140.88
          (Kelvin)            156.54   195.95   225.40   244.47   295.98
                              324.50   384.58   404.44   407.43   432.15
                              450.09   454.71   477.00   504.11   516.94
                              552.78   597.76   620.00   620.41   666.99
                              685.42   717.23   758.85   775.36   803.28
                              834.92   853.49   873.25   927.46   952.33
                             1001.81  1011.18  1020.82  1034.86  1036.83
                             1137.32  1194.34  1234.20  1377.51  1380.41
                             1401.59  1413.14  1429.44  1443.43  1455.37
                             1464.94  1494.93  1496.16  1527.67  1532.78
                             1542.71  1547.64  1555.18  1583.69  1588.89
                             1602.65  1620.61  1630.73  1642.64  1657.84
                             1659.98  1674.39  1683.27  1703.61  1727.54
                             1735.27  1774.38  1782.46  1801.12  1821.47
                             1828.47  1832.29  1845.13  1870.56  1872.83
                             1878.61  1897.15  1912.84  1921.86  1928.47
                             1936.58  1953.34  1961.03  1979.27  2006.27
                             2007.06  2027.05  2047.23  2068.62  2074.57
                             2078.35  2092.10  2096.92  2111.90  2129.19
                             2164.69  4685.05  4692.10  4701.95  4705.77
                             4707.37  4710.09  4713.77  4717.88  4727.70
                             4737.30  4746.72  4752.62  4779.05  4791.32
                             4828.30  4830.39  4839.35  4854.24  4859.53
                             4865.35  5579.85  5595.48

 Zero-point correction=                           0.371245 (Hartree/Particle)
 Thermal correction to Energy=                    0.390662
 Thermal correction to Enthalpy=                  0.391606
 Thermal correction to Gibbs Free Energy=         0.322085
 Sum of electronic and zero-point Energies=          -1297.621681
 Sum of electronic and thermal Energies=             -1297.602264
 Sum of electronic and thermal Enthalpies=           -1297.601320
 Sum of electronic and thermal Free Energies=        -1297.670841

                     E (Thermal)             CV                S
                      KCal/Mol        Cal/Mol-Kelvin    Cal/Mol-Kelvin
 Total                  245.144             78.136            146.319
 Electronic               0.000              0.000              0.000
 Translational            0.889              2.981             43.384
 Rotational               0.889              2.981             35.133
 Vibrational            243.367             72.174             67.802
 Vibration     1          0.593              1.987              7.628
 Vibration     2          0.593              1.985              6.328
 Vibration     3          0.597              1.973              4.406
 Vibration     4          0.598              1.970              4.227
 Vibration     5          0.603              1.951              3.495
 Vibration     6          0.606              1.942              3.290
 Vibration     7          0.614              1.917              2.857
 Vibration     8          0.620              1.895              2.590
 Vibration     9          0.625              1.880              2.436
 Vibration    10          0.640              1.832              2.081
 Vibration    11          0.650              1.802              1.914
 Vibration    12          0.672              1.733              1.614
 Vibration    13          0.681              1.709              1.527
 Vibration    14          0.682              1.705              1.514
 Vibration    15          0.693              1.673              1.415
 Vibration    16          0.701              1.649              1.347
 Vibration    17          0.703              1.643              1.331
 Vibration    18          0.714              1.613              1.253
 Vibration    19          0.727              1.574              1.165
 Vibration    20          0.734              1.556              1.125
 Vibration    21          0.753              1.504              1.023
 Vibration    22          0.779              1.437              0.908
 Vibration    23          0.792              1.403              0.856
 Vibration    24          0.792              1.402              0.855
 Vibration    25          0.821              1.331              0.756
 Vibration    26          0.833              1.302              0.720
 Vibration    27          0.854              1.253              0.662
 Vibration    28          0.882              1.189              0.593
 Vibration    29          0.894              1.164              0.568
 Vibration    30          0.914              1.122              0.527
 Vibration    31          0.937              1.074              0.485
 Vibration    32          0.951              1.046              0.461
 Vibration    33          0.966              1.017              0.438

 Normal termination of Gaussian 09 at Mon Mar 28 11:11:15 2016.
