 Gaussian 09, Revision B.01,
 Gaussian 09:  EM64L-G09RevB.01 12-Aug-2010

 ------------------------------------------------
 # freq=raman b3lyp/6-31+g(d,p) geom=connectivity
 ------------------------------------------------

 ------------
 280 9000.com
 ------------
 Symbolic Z-matrix:
 Charge =  0 Multiplicity = 1

                         Standard orientation:
 ---------------------------------------------------------------------
 Center     Atomic      Atomic             Coordinates (Angstroms)
 Number     Number       Type             X           Y           Z
 ---------------------------------------------------------------------
      1          8           0       -4.947295   -0.358032    0.445937
      2          6           0       -3.680029   -0.057409   -0.144456
      3          6           0       -3.250187    1.322358    0.325463
      4          8           0       -4.222994    2.317163   -0.027843
      5          1           0       -5.132512    1.932502    0.130038
      6          6           0       -1.840822    1.621875   -0.157555
      7          8           0       -1.346914    2.918015    0.210919
      8          1           0       -0.459298    3.072731   -0.221856
      9          6           0       -2.994327   -2.560655   -0.386671
     10          8           0       -4.214348   -3.217565   -0.015286
     11          1           0       -4.090804   -4.209515    0.022620
     12          6           0       -2.716896   -1.183051    0.194387
     13          8           0       -1.407925   -0.822168   -0.268696
     14          6           0       -0.951856    0.448165    0.220258
     15          8           0        0.333981    0.593791   -0.399687
     16          6           0        1.580021    0.284400    0.240784
     17          6           0        1.830652   -1.158140   -0.166975
     18          8           0        0.911874   -2.169517    0.270167
     19          1           0       -0.026233   -2.001430   -0.031884
     20          6           0        3.220526   -1.565065    0.293984
     21          8           0        3.663955   -2.725425   -0.423700
     22          1           0        4.631422   -2.902587   -0.243323
     23          6           0        2.548064    2.628400    0.096771
     24          8           0        1.427569    3.278987   -0.519267
     25          1           0        1.493362    4.271876   -0.416844
     26          6           0        2.683488    1.170489   -0.313438
     27          8           0        3.932718    0.723301    0.233703
     28          6           0        4.283433   -0.597557   -0.202516
     29          8           0        5.441167   -0.680253    0.642488
     30          1           0        6.230841   -0.732771    0.099113
     31          1           0        4.501157   -0.665881   -1.247900
     32          1           0        2.707754    1.094895   -1.380489
     33          1           0        3.272283   -1.707090    1.353253
     34          1           0        1.832784   -1.181994   -1.236707
     35          1           0        1.502437    0.377985    1.303857
     36          1           0        3.442011    3.148040   -0.178425
     37          1           0        2.433488    2.677921    1.159465
     38          1           0       -0.838180    0.407195    1.283413
     39          1           0       -1.888880    1.622853   -1.226475
     40          1           0       -3.212459    1.290994    1.394338
     41          1           0       -3.801249   -0.027607   -1.207149
     42          1           0       -2.679901   -1.275407    1.259752
     43          1           0       -2.183630   -3.200008   -0.105785
     44          1           0       -2.986675   -2.470126   -1.452807
     45          1           0       -5.594408   -0.511812   -0.246303
 ---------------------------------------------------------------------

 SCF Done:  E(RB3LYP) =  -1297.94161028     A.U. after   13 cycles

 The electronic state is 1-A.
 Alpha  occ. eigenvalues --  -19.19597 -19.18824 -19.18370 -19.17728 -19.17561
 Alpha  occ. eigenvalues --  -19.17554 -19.17435 -19.16151 -19.16130 -19.15026
 Alpha  occ. eigenvalues --  -19.14672 -10.31122 -10.30653 -10.26161 -10.25819
 Alpha  occ. eigenvalues --  -10.25678 -10.25642 -10.25230 -10.25147 -10.24827
 Alpha  occ. eigenvalues --  -10.24797 -10.24635 -10.24369  -1.09821  -1.09357
 Alpha  occ. eigenvalues --   -1.05560  -1.04652  -1.03661  -1.02992  -1.02895
 Alpha  occ. eigenvalues --   -1.02088  -1.01768  -1.00475  -1.00089  -0.82206
 Alpha  occ. eigenvalues --   -0.80592  -0.78799  -0.78453  -0.71849  -0.70019
 Alpha  occ. eigenvalues --   -0.67559  -0.64591  -0.63217  -0.62736  -0.61326
 Alpha  occ. eigenvalues --   -0.60448  -0.56571  -0.55675  -0.54717  -0.54607
 Alpha  occ. eigenvalues --   -0.53960  -0.53517  -0.52973  -0.51926  -0.51567
 Alpha  occ. eigenvalues --   -0.50276  -0.49904  -0.49402  -0.48987  -0.46656
 Alpha  occ. eigenvalues --   -0.45566  -0.45001  -0.44881  -0.43725  -0.43000
 Alpha  occ. eigenvalues --   -0.42399  -0.41682  -0.41115  -0.40384  -0.39207
 Alpha  occ. eigenvalues --   -0.38559  -0.37844  -0.37047  -0.36144  -0.35760
 Alpha  occ. eigenvalues --   -0.34935  -0.34570  -0.34013  -0.33867  -0.33038
 Alpha  occ. eigenvalues --   -0.32129  -0.31090  -0.30585  -0.30022  -0.29557
 Alpha  occ. eigenvalues --   -0.29336  -0.29093  -0.27883  -0.27625  -0.27095
 Alpha  occ. eigenvalues --   -0.26236
 Alpha virt. eigenvalues --   -0.01966  -0.01956  -0.01659  -0.00425   0.00522
 Alpha virt. eigenvalues --    0.01121   0.01838   0.02216   0.03113   0.03446
 Alpha virt. eigenvalues --    0.03621   0.04324   0.05032   0.05286   0.05441

 Mulliken atomic charges:
              1
     1  O   -0.544548
     2  C   -0.143608
     3  C    0.152321
     4  O   -0.501273
     5  H    0.355758
     6  C   -0.049478
     7  O   -0.523506
     8  H    0.417538
     9  C   -0.158114
    10  O   -0.558204
    11  H    0.365400
    12  C    0.182866
    13  O   -0.409060
    14  C    0.237407
    15  O   -0.339304
    16  C    0.015479
    17  C   -0.168351
    18  O   -0.542514
    19  H    0.413558
    20  C    0.304567
    21  O   -0.504367
    22  H    0.342617
    23  C    0.009012
    24  O   -0.608075
    25  H    0.380982
    26  C   -0.024301
    27  O   -0.300042
    28  C    0.074585
    29  O   -0.544593
    30  H    0.354091
    31  H    0.149399
    32  H    0.137272
    33  H    0.159394
    34  H    0.140073
    35  H    0.133178
    36  H    0.140488
    37  H    0.143982
    38  H    0.117285
    39  H    0.137353
    40  H    0.131225
    41  H    0.136851
    42  H    0.138574
    43  H    0.132388
    44  H    0.141376
    45  H    0.374320
 Sum of Mulliken atomic charges =   0.00000

 Dipole moment (field-independent basis, Debye):
    X=              2.3833    Y=             -0.5690    Z=             -2.1632  Tot=              3.2685
 Quadrupole moment (field-independent basis, Debye-Ang):
   XX=           -117.2564   YY=           -136.5192   ZZ=           -139.3886
   XY=             17.0944   XZ=             -1.7753   YZ=              0.9102

  Exact polarizability: 229.022  -0.681 194.452   0.042   0.705 141.595
 Approx polarizability: 266.894   0.727 249.713   0.454   1.026 230.891

 ******    8 imaginary frequencies (negative Signs) ******

                     1                      2                      3
                     A                      A                      A
 Frequencies --  -303.2593              -277.6096              -250.1919
 Red. masses --     1.1550                 1.4432                 1.3614
 Frc consts  --     0.0626                 0.0655                 0.0502
 IR Inten    --   100.1667                64.9412                63.1333
 Raman Activ --     1.7948                 0.4052                 0.7029

                     4                      5                      6
                     A                      A                      A
 Frequencies --  -214.9876               -79.7258               -68.2860
 Red. masses --     1.9547                 6.6258                 5.8755
 Frc consts  --     0.0532                 0.0248                 0.0161
 IR Inten    --     4.8344                 0.4609                 1.3804
 Raman Activ --     0.0781                 0.0117                 0.0352

                     7                      8                      9
                     A                      A                      A
 Frequencies --   -36.9076               -14.4922                58.0564
 Red. masses --     6.1148                 6.3434                 7.1499
 Frc consts  --     0.0049                 0.0008                 0.0142
 IR Inten    --     1.1773                 0.5743                 3.0008
 Raman Activ --     0.0457                 0.0448                 0.2437

                    10                     11                     12
                     A                      A                      A
 Frequencies --    68.4504                91.2727               105.9933
 Red. masses --     6.5686                 6.7532                 6.0370
 Frc consts  --     0.0181                 0.0331                 0.0400
 IR Inten    --     1.7167                 0.6408                 1.2542
 Raman Activ --     0.1877                 0.0189                 0.0446

                    13                     14                     15
                     A                      A                      A
 Frequencies --   149.3017               159.8210               178.8367
 Red. masses --     6.2545                 6.4522                 6.4572
 Frc consts  --     0.0821                 0.0971                 0.1217
 IR Inten    --     2.5359                 1.9283                 0.3469
 Raman Activ --     0.3534                 0.1147                 0.4050

                    16                     17                     18
                     A                      A                      A
 Frequencies --   190.9530               224.5749               251.1174
 Red. masses --     6.7694                 6.0051                 4.4303
 Frc consts  --     0.1454                 0.1784                 0.1646
 IR Inten    --     0.3063                 0.8362                21.2928
 Raman Activ --     1.7895                 1.0514                 0.2279

                    19                     20                     21
                     A                      A                      A
 Frequencies --   267.3439               290.8709               293.8942
 Red. masses --     5.1399                 5.0237                 5.6182
 Frc consts  --     0.2164                 0.2504                 0.2859
 IR Inten    --     0.6504                 0.6045                 0.4164
 Raman Activ --     0.1976                 0.2239                 1.1535

                    22                     23                     24
                     A                      A                      A
 Frequencies --   308.4839               321.7136               326.9914
 Red. masses --     5.6355                 5.9667                 5.7735
 Frc consts  --     0.3160                 0.3639                 0.3637
 IR Inten    --     0.7628                 6.1342                 3.6341
 Raman Activ --     1.3298                 1.0999                 2.1596

                    25                     26                     27
                     A                      A                      A
 Frequencies --   336.9580               362.4911               371.3804
 Red. masses --     7.0441                 4.3211                 5.5724
 Frc consts  --     0.4712                 0.3345                 0.4528
 IR Inten    --    11.5505                 7.6479                 1.3611
 Raman Activ --     5.2719                 0.6727                 0.7811

                    28                     29                     30
                     A                      A                      A
 Frequencies --   411.4644               417.1654               436.2909
 Red. masses --     4.3078                 6.7702                 4.3601
 Frc consts  --     0.4297                 0.6942                 0.4890
 IR Inten    --    19.7361                 2.4549                 4.5759
 Raman Activ --     4.1059                 4.7629                 1.3688

                    31                     32                     33
                     A                      A                      A
 Frequencies --   441.5738               468.8885               495.5764
 Red. masses --     5.0145                 4.1288                 5.4504
 Frc consts  --     0.5761                 0.5348                 0.7887
 IR Inten    --     2.6544                 4.0860                 7.8104
 Raman Activ --     2.1223                 5.5967                 0.2231

                    34                     35                     36
                     A                      A                      A
 Frequencies --   508.2951               517.7043               563.6932
 Red. masses --     3.2090                 3.2137                 3.8632
 Frc consts  --     0.4885                 0.5075                 0.7232
 IR Inten    --    10.9035                26.6635                 7.6845
 Raman Activ --     3.7851                 2.7016                 0.9797

                    37                     38                     39
                     A                      A                      A
 Frequencies --   585.9178               594.4730               633.2214
 Red. masses --     3.7572                 2.8719                 3.4401
 Frc consts  --     0.7599                 0.5980                 0.8127
 IR Inten    --    24.8913                28.8956                40.2945
 Raman Activ --     0.5270                 0.2644                 1.7222

                    40                     41                     42
                     A                      A                      A
 Frequencies --   649.7649               665.9925               706.4071
 Red. masses --     1.3513                 4.3571                 1.2076
 Frc consts  --     0.3361                 1.1386                 0.3550
 IR Inten    --    91.6270                31.1882                94.8943
 Raman Activ --     1.9444                 0.4518                 0.9199

                    43                     44                     45
                     A                      A                      A
 Frequencies --   709.1592               733.9247               735.4652
 Red. masses --     3.3121                 1.0612                 1.0655
 Frc consts  --     0.9814                 0.3368                 0.3396
 IR Inten    --    23.8264                86.1164               122.5852
 Raman Activ --     1.6085                 2.0130                 2.0247

                    46                     47                     48
                     A                      A                      A
 Frequencies --   777.7231               782.5899               841.6332
 Red. masses --     1.0785                 1.0606                 1.7577
 Frc consts  --     0.3843                 0.3827                 0.7336
 IR Inten    --   145.8364               118.7448                 4.2359
 Raman Activ --     2.2551                 2.6233                 0.6610

                    49                     50                     51
                     A                      A                      A
 Frequencies --   867.4933               925.5651               951.0677
 Red. masses --     1.6651                 6.2309                 5.2990
 Frc consts  --     0.7383                 3.1450                 2.8240
 IR Inten    --     2.4316               139.7319                89.1807
 Raman Activ --     0.6928                 3.4481                 1.4572

                    52                     53                     54
                     A                      A                      A
 Frequencies --   983.5665               993.6421              1000.7666
 Red. masses --     7.0519                 4.1399                 3.8434
 Frc consts  --     4.0194                 2.4083                 2.2680
 IR Inten    --    78.9793                30.0878                59.0167
 Raman Activ --     0.5602                 6.2184                 4.0897

                    55                     56                     57
                     A                      A                      A
 Frequencies --  1011.3397              1020.3056              1028.7223
 Red. masses --     3.9260                 5.9717                 6.5248
 Frc consts  --     2.3659                 3.6627                 4.0683
 IR Inten    --    67.6485               121.2768               175.7130
 Raman Activ --     0.5985                 2.6955                 5.2610

                    58                     59                     60
                     A                      A                      A
 Frequencies --  1045.3003              1050.1724              1067.7519
 Red. masses --     2.6559                 3.2337                 3.3027
 Frc consts  --     1.7098                 2.1012                 2.2185
 IR Inten    --    23.9619               343.9142               101.3964
 Raman Activ --     4.4251                 1.5830                 9.8988

                    61                     62                     63
                     A                      A                      A
 Frequencies --  1078.5143              1082.9058              1096.4436
 Red. masses --     4.2938                 3.5334                 3.4616
 Frc consts  --     2.9427                 2.4413                 2.4519
 IR Inten    --     2.5087                90.4078               102.0983
 Raman Activ --    20.7402                 2.7688                 3.2001

                    64                     65                     66
                     A                      A                      A
 Frequencies --  1098.3233              1106.0921              1111.0392
 Red. masses --     4.2544                 3.1064                 2.5343
 Frc consts  --     3.0238                 2.2392                 1.8432
 IR Inten    --    11.2012               151.1007                38.5715
 Raman Activ --     3.0256                12.8122                 1.0369

                    67                     68                     69
                     A                      A                      A
 Frequencies --  1120.0179              1122.5191              1130.8696
 Red. masses --     2.9711                 2.8659                 1.7875
 Frc consts  --     2.1959                 2.1276                 1.3468
 IR Inten    --    83.6347                67.6597                27.5426
 Raman Activ --     4.5508                 7.0345                 4.8455

                    70                     71                     72
                     A                      A                      A
 Frequencies --  1144.2486              1149.1644              1155.6022
 Red. masses --     2.2224                 1.9762                 2.1044
 Frc consts  --     1.7144                 1.5376                 1.6558
 IR Inten    --    30.7462                15.0343                 7.1633
 Raman Activ --     5.3310                 2.5417                 4.0497

                    73                     74                     75
                     A                      A                      A
 Frequencies --  1161.1295              1168.2194              1182.7276
 Red. masses --     3.1945                 1.6388                 1.7999
 Frc consts  --     2.5375                 1.3177                 1.4834
 IR Inten    --    11.0951                 5.1267                26.6243
 Raman Activ --     3.0313                 1.7606                 4.8447

                    76                     77                     78
                     A                      A                      A
 Frequencies --  1195.9044              1202.4605              1208.8721
 Red. masses --     1.5397                 1.2572                 1.2310
 Frc consts  --     1.2974                 1.0710                 1.0599
 IR Inten    --    10.2184                21.6853                23.2680
 Raman Activ --     5.0496                 2.1126                 1.3342

                    79                     80                     81
                     A                      A                      A
 Frequencies --  1223.5858              1239.4449              1247.2569
 Red. masses --     1.4033                 1.1820                 1.3529
 Frc consts  --     1.2379                 1.0699                 1.2400
 IR Inten    --     4.3363                22.7285                 1.9452
 Raman Activ --     1.7709                 1.6439                 1.5674

                    82                     83                     84
                     A                      A                      A
 Frequencies --  1253.7337              1259.2661              1270.6305
 Red. masses --     1.3963                 1.2367                 1.2867
 Frc consts  --     1.2931                 1.1554                 1.2239
 IR Inten    --    48.7237                20.3388                12.6917
 Raman Activ --     3.3968                 7.9367                 0.3689

                    85                     86                     87
                     A                      A                      A
 Frequencies --  1281.1538              1287.0339              1291.9986
 Red. masses --     1.2776                 1.2466                 1.2415
 Frc consts  --     1.2355                 1.2166                 1.2211
 IR Inten    --     2.6730                13.0022                 1.2777
 Raman Activ --     3.5417                 1.8937                 4.9841

                    88                     89                     90
                     A                      A                      A
 Frequencies --  1303.1785              1307.4231              1328.6687
 Red. masses --     1.2774                 1.2715                 1.2720
 Frc consts  --     1.2782                 1.2806                 1.3231
 IR Inten    --    69.6206                12.1917                15.6219
 Raman Activ --     2.8643                 6.0873                14.5069

                    91                     92                     93
                     A                      A                      A
 Frequencies --  1330.3340              1337.3532              1351.9177
 Red. masses --     1.2735                 1.1654                 1.2479
 Frc consts  --     1.3279                 1.2281                 1.3437
 IR Inten    --    60.2680                61.1038                37.6551
 Raman Activ --     1.2103                 4.2166                 6.7137

                    94                     95                     96
                     A                      A                      A
 Frequencies --  1352.8721              1359.0342              1363.6224
 Red. masses --     1.2922                 1.4672                 1.4403
 Frc consts  --     1.3935                 1.5966                 1.5779
 IR Inten    --    21.6604                 4.1577                 1.9057
 Raman Activ --     3.5210                 3.8228                 8.3687

                    97                     98                     99
                     A                      A                      A
 Frequencies --  1375.5170              1376.8085              1396.0999
 Red. masses --     1.5548                 1.5184                 1.6090
 Frc consts  --     1.7332                 1.6959                 1.8477
 IR Inten    --     9.5297                13.1579                 7.3655
 Raman Activ --     7.9316                 4.2955                 7.1275

                   100                    101                    102
                     A                      A                      A
 Frequencies --  1409.1031              1418.0724              1441.7368
 Red. masses --     1.5112                 1.4992                 1.5128
 Frc consts  --     1.7679                 1.7763                 1.8527
 IR Inten    --    26.0462                27.6159                16.9433
 Raman Activ --     0.5434                 1.1627                 2.1717

                   103                    104                    105
                     A                      A                      A
 Frequencies --  1445.9148              1448.7214              1476.1809
 Red. masses --     1.4902                 1.4224                 1.0908
 Frc consts  --     1.8356                 1.7588                 1.4005
 IR Inten    --    18.7603                28.7419                 1.7985
 Raman Activ --     0.7254                 1.7555                 4.7245

                   106                    107                    108
                     A                      A                      A
 Frequencies --  1481.4026              1484.5956              3269.3327
 Red. masses --     1.1621                 1.2160                 1.0576
 Frc consts  --     1.5026                 1.5791                 6.6605
 IR Inten    --     7.7240                24.9291                35.8084
 Raman Activ --     4.6017                 1.8646                84.9629

                   109                    110                    111
                     A                      A                      A
 Frequencies --  3274.0370              3278.8912              3284.6538
 Red. masses --     1.0570                 1.0811                 1.0830
 Frc consts  --     6.6758                 6.8480                 6.8840
 IR Inten    --    45.4393                 6.2600                 2.1899
 Raman Activ --    80.3037               141.7657                10.1127

                   112                    113                    114
                     A                      A                      A
 Frequencies --  3289.0926              3290.1454              3296.7959
 Red. masses --     1.0834                 1.0836                 1.0846
 Frc consts  --     6.9056                 6.9114                 6.9453
 IR Inten    --    37.6874                 2.7773                 7.5640
 Raman Activ --     9.2342               140.5879                98.7154

                   115                    116                    117
                     A                      A                      A
 Frequencies --  3298.9968              3308.4832              3311.5970
 Red. masses --     1.0861                 1.0874                 1.0866
 Frc consts  --     6.9644                 7.0127                 7.0208
 IR Inten    --     2.3058                70.5319                25.0989
 Raman Activ --    36.5166                12.0794                 3.9218

                   118                    119                    120
                     A                      A                      A
 Frequencies --  3320.0283              3326.7664              3327.6549
 Red. masses --     1.0881                 1.1051                 1.0882
 Frc consts  --     7.0663                 7.2059                 7.0997
 IR Inten    --     0.5146                49.6897                52.6559
 Raman Activ --   106.8223                34.3811                12.4839

                   121                    122                    123
                     A                      A                      A
 Frequencies --  3335.7022              3337.4913              3347.4439
 Red. masses --     1.0976                 1.0778                 1.0687
 Frc consts  --     7.1955                 7.0734                 7.0553
 IR Inten    --    46.8939               186.4522               802.4110
 Raman Activ --   210.2169               191.0815                59.2057

                   124                    125                    126
                     A                      A                      A
 Frequencies --  3379.3765              3386.5600              3387.4428
 Red. masses --     1.0663                 1.0671                 1.0662
 Frc consts  --     7.1745                 7.2105                 7.2085
 IR Inten    --    23.2404                49.1662                21.6775
 Raman Activ --   153.2488               162.2815                71.7557

                   127                    128                    129
                     A                      A                      A
 Frequencies --  3387.8730              3917.2707              3918.6094
 Red. masses --     1.0682                 1.0677                 1.0675
 Frc consts  --     7.2235                 9.6535                 9.6583
 IR Inten    --    60.2643                72.9310                49.6138
 Raman Activ --   195.6846                82.7302               146.5557

 - Thermochemistry -
 -------------------
 Temperature   298.150 Kelvin.  Pressure   1.00000 Atm.
 Atom     1 has atomic number  8 and mass  15.99491

 Molecular mass:   342.11621 amu.
 Principal axes and moments of inertia in atomic units:
                           1         2         3
     Eigenvalues --  4463.45017********************
           X            0.99997   0.00804  -0.00025
           Y           -0.00804   0.99996   0.00234
           Z            0.00027  -0.00234   1.00000
 This molecule is an asymmetric top.
 Rotational symmetry number  1.
 Warning -- assumption of classical behavior for rotation
           may cause significant error
 Rotational temperatures (Kelvin)      0.01941     0.00708     0.00531
 Rotational constants (GHZ):           0.40434     0.14758     0.11061
    8 imaginary frequencies ignored.
 Zero-point vibrational energy     974436.6 (Joules/Mol)
                                  232.89594 (Kcal/Mol)
 Warning -- explicit consideration of  30 degrees of freedom as
           vibrations may cause significant error
 Vibrational temperatures:     83.53    98.48   131.32   152.50   214.81
          (Kelvin)            229.95   257.31   274.74   323.11   361.30
                              384.65   418.50   422.85   443.84   462.87
                              470.47   484.81   521.54   534.33   592.00
                              600.21   627.72   635.33   674.63   713.02
                              731.32   744.86   811.03   843.00   855.31
                              911.06   934.87   958.21  1016.36  1020.32
                             1055.95  1058.17  1118.97  1125.97  1210.92
                             1248.13  1331.68  1368.37  1415.13  1429.63
                             1439.88  1455.09  1467.99  1480.10  1503.95
                             1510.96  1536.25  1551.74  1558.06  1577.54
                             1580.24  1591.42  1598.54  1611.45  1615.05
                             1627.07  1646.32  1653.39  1662.65  1670.60
                             1680.81  1701.68  1720.64  1730.07  1739.30
                             1760.46  1783.28  1794.52  1803.84  1811.80
                             1828.15  1843.29  1851.75  1858.90  1874.98
                             1881.09  1911.66  1914.05  1924.15  1945.11
                             1946.48  1955.34  1961.95  1979.06  1980.92
                             2008.67  2027.38  2040.29  2074.34  2080.35
                             2084.38  2123.89  2131.41  2136.00  4703.83
                             4710.60  4717.59  4725.88  4732.26  4733.78
                             4743.35  4746.51  4760.16  4764.64  4776.77
                             4786.47  4787.75  4799.33  4801.90  4816.22
                             4862.16  4872.50  4873.77  4874.39  5636.07
                             5638.00

 Zero-point correction=                           0.371143 (Hartree/Particle)
 Thermal correction to Energy=                    0.388828
 Thermal correction to Enthalpy=                  0.389772
 Thermal correction to Gibbs Free Energy=         0.326661
 Sum of electronic and zero-point Energies=          -1297.570467
 Sum of electronic and thermal Energies=             -1297.552782
 Sum of electronic and thermal Enthalpies=           -1297.551838
 Sum of electronic and thermal Free Energies=        -1297.614949

                     E (Thermal)             CV                S
                      KCal/Mol        Cal/Mol-Kelvin    Cal/Mol-Kelvin
 Total                  243.993             74.238            132.829
 Electronic               0.000              0.000              0.000
 Translational            0.889              2.981             43.384
 Rotational               0.889              2.981             35.142
 Vibrational            242.216             68.276             54.302
 Vibration     1          0.596              1.974              4.522
 Vibration     2          0.598              1.969              4.197
 Vibration     3          0.602              1.955              3.633
 Vibration     4          0.605              1.944              3.341
 Vibration     5          0.618              1.903              2.681
 Vibration     6          0.622              1.892              2.552
 Vibration     7          0.629              1.868              2.341
 Vibration     8          0.634              1.852              2.219
 Vibration     9          0.649              1.804              1.922
 Vibration    10          0.663              1.761              1.723
 Vibration    11          0.672              1.733              1.613
 Vibration    12          0.687              1.691              1.469
 Vibration    13          0.689              1.685              1.451
 Vibration    14          0.698              1.658              1.370
 Vibration    15          0.707              1.632              1.301
 Vibration    16          0.711              1.622              1.275
 Vibration    17          0.718              1.602              1.227
 Vibration    18          0.736              1.550              1.111
 Vibration    19          0.743              1.531              1.074
 Vibration    20          0.775              1.445              0.921
 Vibration    21          0.780              1.433              0.902
 Vibration    22          0.797              1.391              0.838
 Vibration    23          0.801              1.379              0.822
 Vibration    24          0.826              1.319              0.741
 Vibration    25          0.851              1.260              0.669
 Vibration    26          0.863              1.232              0.638
 Vibration    27          0.873              1.211              0.615
 Vibration    28          0.919              1.110              0.517
 Vibration    29          0.943              1.062              0.475
 Vibration    30          0.952              1.044              0.459

 Normal termination of Gaussian 09 at Thu Jan 21 04:56:30 2016.
