 Gaussian 09, Revision B.01,
 Gaussian 09:  EM64L-G09RevB.01 12-Aug-2010

 -------------------------------------------------
 # freq=raman b3lyp/6-31+g(2d,p) geom=connectivity
 -------------------------------------------------

 -----------------
 500 8934/8934.com
 -----------------
 Symbolic Z-matrix:
 Charge =  0 Multiplicity = 1

                         Standard orientation:
 ---------------------------------------------------------------------
 Center     Atomic      Atomic             Coordinates (Angstroms)
 Number     Number       Type             X           Y           Z
 ---------------------------------------------------------------------
      1          8           0       -4.997149   -0.318895    0.782859
      2          6           0       -3.865113    0.076128   -0.006235
      3          6           0       -3.179748    1.329984    0.512278
      4          8           0       -4.170304    2.356604    0.358246
      5          1           0       -4.934607    2.014332    0.904459
      6          6           0       -1.896700    1.580439   -0.263221
      7          8           0       -1.193107    2.764382    0.138940
      8          1           0       -1.813649    3.529463    0.309934
      9          6           0       -3.475807   -2.276953   -0.515609
     10          8           0       -2.704583   -3.478759   -0.379258
     11          1           0       -3.367264   -4.190202   -0.610937
     12          6           0       -2.860510   -1.053857    0.144743
     13          8           0       -1.563186   -0.821268   -0.422429
     14          6           0       -0.967309    0.409249    0.013030
     15          8           0        0.212421    0.414758   -0.803881
     16          6           0        1.336562    0.263916    0.075257
     17          6           0        1.875774   -1.117775   -0.255042
     18          8           0        0.780937   -2.046114   -0.258936
     19          1           0       -0.012418   -1.586134   -0.658214
     20          6           0        3.081643   -1.591220    0.540264
     21          8           0        3.410737   -2.963420    0.282747
     22          1           0        2.608471   -3.525745    0.480163
     23          6           0        2.120031    2.588128   -0.266395
     24          8           0        3.076088    3.588726   -0.646708
     25          1           0        3.012635    4.406721   -0.074920
     26          6           0        2.556055    1.135388   -0.175841
     27          8           0        3.725029    0.739455    0.555851
     28          6           0        4.103225   -0.562830    0.085198
     29          8           0        5.404555   -0.923818    0.571399
     30          1           0        6.048592   -0.823816   -0.133453
     31          1           0        4.126308   -0.549538   -0.984470
     32          1           0        2.890230   -1.462734    1.585133
     33          1           0        2.210540   -1.060384   -1.269703
     34          1           0        1.032435    0.316180    1.099794
     35          1           0        2.824167    0.903640   -1.185449
     36          1           0        1.733239    2.865010    0.692056
     37          1           0        1.313233    2.635496   -0.967631
     38          1           0       -5.793168   -0.267443    0.248718
     39          1           0       -3.600178   -2.071563   -1.558320
     40          1           0       -4.441009   -2.443992   -0.085048
     41          1           0       -2.738934   -1.258298    1.187971
     42          1           0       -4.144010    0.195531   -1.032324
     43          1           0       -2.950976    1.208012    1.550395
     44          1           0       -2.112764    1.628612   -1.310071
     45          1           0       -0.710988    0.360065    1.050710
 ---------------------------------------------------------------------

 SCF Done:  E(RB3LYP) =  -1297.96145184     A.U. after   14 cycles

 The electronic state is 1-A.
 Alpha  occ. eigenvalues --  -19.20149 -19.19078 -19.19025 -19.18431 -19.18119
 Alpha  occ. eigenvalues --  -19.16744 -19.16395 -19.15328 -19.14574 -19.14414
 Alpha  occ. eigenvalues --  -19.12236 -10.31674 -10.28790 -10.27419 -10.27135
 Alpha  occ. eigenvalues --  -10.26952 -10.26221 -10.24803 -10.24526 -10.24117
 Alpha  occ. eigenvalues --  -10.23283 -10.22632 -10.22275  -1.11412  -1.08436
 Alpha  occ. eigenvalues --   -1.07123  -1.05702  -1.04963  -1.03976  -1.02941
 Alpha  occ. eigenvalues --   -1.01669  -1.01039  -1.00599  -0.98810  -0.83182
 Alpha  occ. eigenvalues --   -0.82160  -0.79277  -0.77712  -0.71976  -0.69807
 Alpha  occ. eigenvalues --   -0.67511  -0.64309  -0.64195  -0.62858  -0.61239
 Alpha  occ. eigenvalues --   -0.60424  -0.57946  -0.56386  -0.55558  -0.54242
 Alpha  occ. eigenvalues --   -0.53147  -0.53033  -0.52549  -0.52169  -0.51525
 Alpha  occ. eigenvalues --   -0.50632  -0.49337  -0.48868  -0.47965  -0.47253
 Alpha  occ. eigenvalues --   -0.46292  -0.45201  -0.44703  -0.43993  -0.43285
 Alpha  occ. eigenvalues --   -0.42936  -0.42287  -0.41096  -0.40255  -0.39999
 Alpha  occ. eigenvalues --   -0.38900  -0.38011  -0.37890  -0.37349  -0.36959
 Alpha  occ. eigenvalues --   -0.36161  -0.34836  -0.34370  -0.33787  -0.33081
 Alpha  occ. eigenvalues --   -0.31857  -0.31243  -0.31076  -0.30535  -0.29657
 Alpha  occ. eigenvalues --   -0.29110  -0.29015  -0.28250  -0.27747  -0.26560
 Alpha  occ. eigenvalues --   -0.25132
 Alpha virt. eigenvalues --   -0.03678  -0.01969  -0.01066  -0.00547   0.00278
 Alpha virt. eigenvalues --    0.00535   0.01269   0.02245   0.02431   0.03213
 Alpha virt. eigenvalues --    0.03867   0.04309   0.05197   0.05564   0.05935

 Mulliken atomic charges:
              1
     1  O   -0.559590
     2  C   -0.171062
     3  C    0.112840
     4  O   -0.571563
     5  H    0.347833
     6  C   -0.042113
     7  O   -0.568907
     8  H    0.363999
     9  C   -0.382525
    10  O   -0.501219
    11  H    0.330110
    12  C    0.405125
    13  O   -0.301443
    14  C    0.386217
    15  O   -0.202935
    16  C    0.522463
    17  C    0.233130
    18  O   -0.640273
    19  H    0.395967
    20  C   -0.146558
    21  O   -0.510179
    22  H    0.351001
    23  C   -0.509760
    24  O   -0.527487
    25  H    0.328361
    26  C   -0.174724
    27  O   -0.288988
    28  C    0.403491
    29  O   -0.540791
    30  H    0.324466
    31  H    0.115227
    32  H    0.120088
    33  H    0.100286
    34  H    0.099155
    35  H    0.104873
    36  H    0.132101
    37  H    0.179951
    38  H    0.345017
    39  H    0.138461
    40  H    0.152326
    41  H    0.124734
    42  H    0.135042
    43  H    0.129725
    44  H    0.135599
    45  H    0.122531
 Sum of Mulliken atomic charges =   0.00000

 Dipole moment (field-independent basis, Debye):
    X=             -9.3428    Y=              1.9066    Z=             -0.2531  Tot=              9.5387
 Quadrupole moment (field-independent basis, Debye-Ang):
   XX=           -120.7926   YY=           -139.7592   ZZ=           -138.3885
   XY=              9.8826   XZ=             -3.2609   YZ=              8.0619

  Exact polarizability: 226.270  -0.785 201.135  -0.813   1.390 142.582
 Approx polarizability: 271.351  -0.112 260.476  -0.962   1.957 239.016

 ******    6 imaginary frequencies (negative Signs) ******

                     1                      2                      3
                     A                      A                      A
 Frequencies --  -250.3773              -234.4560              -234.1639
 Red. masses --     1.6058                 1.5559                 1.2623
 Frc consts  --     0.0593                 0.0504                 0.0408
 IR Inten    --     2.2899                35.3977                58.0901
 Raman Activ --     0.2193                 0.2707                 0.6043

                     4                      5                      6
                     A                      A                      A
 Frequencies --  -101.0370               -45.4609               -32.5198
 Red. masses --     6.6569                 6.4109                 3.9824
 Frc consts  --     0.0400                 0.0078                 0.0025
 IR Inten    --     0.5907                 0.4380                15.7621
 Raman Activ --     0.0506                 0.1420                 0.0625

                     7                      8                      9
                     A                      A                      A
 Frequencies --    40.8397                61.2776                66.6240
 Red. masses --     6.1914                 5.9435                 3.0508
 Frc consts  --     0.0061                 0.0131                 0.0080
 IR Inten    --     3.1437                 1.8547                32.6452
 Raman Activ --     0.1381                 0.0344                 0.4185

                    10                     11                     12
                     A                      A                      A
 Frequencies --   104.7733               111.8023               123.4687
 Red. masses --     6.1625                 6.7784                 2.1766
 Frc consts  --     0.0399                 0.0499                 0.0195
 IR Inten    --     2.7965                 0.7144                66.6170
 Raman Activ --     0.0346                 0.6990                 0.2381

                    13                     14                     15
                     A                      A                      A
 Frequencies --   158.1721               164.7916               192.4826
 Red. masses --     5.9730                 6.9469                 6.3557
 Frc consts  --     0.0880                 0.1111                 0.1387
 IR Inten    --     0.6420                 1.6285                 1.0941
 Raman Activ --     0.0779                 0.6264                 1.4731

                    16                     17                     18
                     A                      A                      A
 Frequencies --   208.5273               241.6629               265.4360
 Red. masses --     5.4101                 6.5685                 5.7215
 Frc consts  --     0.1386                 0.2260                 0.2375
 IR Inten    --     2.9743                 2.2362                 7.0513
 Raman Activ --     0.5778                 1.5490                 1.0060

                    19                     20                     21
                     A                      A                      A
 Frequencies --   281.1988               290.4764               308.3160
 Red. masses --     4.3188                 6.6381                 4.3954
 Frc consts  --     0.2012                 0.3300                 0.2462
 IR Inten    --     2.2822                 1.5592                 5.0906
 Raman Activ --     0.1802                 0.2419                 0.7383

                    22                     23                     24
                     A                      A                      A
 Frequencies --   314.2652               330.7750               347.6718
 Red. masses --     5.4848                 4.2894                 5.4625
 Frc consts  --     0.3192                 0.2765                 0.3890
 IR Inten    --     2.7276                 2.0174                 1.1512
 Raman Activ --     1.9037                 0.5637                 3.8225

                    25                     26                     27
                     A                      A                      A
 Frequencies --   362.3248               373.2568               404.0964
 Red. masses --     4.8987                 5.0828                 6.5103
 Frc consts  --     0.3789                 0.4172                 0.6264
 IR Inten    --     2.1608                 3.1894                 6.8036
 Raman Activ --     4.0456                 0.4157                 0.9397

                    28                     29                     30
                     A                      A                      A
 Frequencies --   416.9260               426.0211               444.5020
 Red. masses --     5.9574                 4.7026                 4.7574
 Frc consts  --     0.6101                 0.5029                 0.5538
 IR Inten    --     1.6458                 4.8939                 8.3463
 Raman Activ --     2.4333                 2.4674                 2.6198

                    31                     32                     33
                     A                      A                      A
 Frequencies --   446.3456               498.7533               507.7172
 Red. masses --     6.1716                 5.9560                 3.6962
 Frc consts  --     0.7244                 0.8729                 0.5614
 IR Inten    --     3.0012                14.0084                12.8852
 Raman Activ --     2.7953                 1.8238                 0.4399

                    34                     35                     36
                     A                      A                      A
 Frequencies --   537.8154               540.0602               558.6529
 Red. masses --     3.7611                 4.1694                 5.6791
 Frc consts  --     0.6410                 0.7165                 1.0443
 IR Inten    --    11.4165                 6.5997                 7.3297
 Raman Activ --     4.6828                 1.2211                 5.2305

                    37                     38                     39
                     A                      A                      A
 Frequencies --   594.0815               609.2669               618.8073
 Red. masses --     3.5660                 2.8876                 3.2127
 Frc consts  --     0.7415                 0.6316                 0.7248
 IR Inten    --    23.3210                50.1129                 1.6509
 Raman Activ --     0.5242                 1.0983                 0.4226

                    40                     41                     42
                     A                      A                      A
 Frequencies --   636.1418               659.5679               674.4101
 Red. masses --     1.3347                 2.5995                 3.4110
 Frc consts  --     0.3182                 0.6663                 0.9141
 IR Inten    --    88.5499                 4.1336                49.2018
 Raman Activ --     0.6400                 0.6433                 0.3684

                    43                     44                     45
                     A                      A                      A
 Frequencies --   698.9502               712.1105               718.8955
 Red. masses --     1.0811                 1.0696                 1.1072
 Frc consts  --     0.3112                 0.3196                 0.3371
 IR Inten    --   109.6096               125.7293                84.5595
 Raman Activ --     1.2003                 1.2833                 2.1278

                    46                     47                     48
                     A                      A                      A
 Frequencies --   783.0629               808.8991               819.4867
 Red. masses --     1.0947                 1.3440                 2.3788
 Frc consts  --     0.3955                 0.5181                 0.9412
 IR Inten    --    89.0761               128.0334                13.1724
 Raman Activ --     1.3611                 5.7561                 3.6462

                    49                     50                     51
                     A                      A                      A
 Frequencies --   857.6983               941.5768               953.6300
 Red. masses --     2.0775                 5.5834                 5.8619
 Frc consts  --     0.9004                 2.9165                 3.1408
 IR Inten    --     2.6398               276.2665                65.3754
 Raman Activ --     3.6177                 1.5227                 0.5420

                    52                     53                     54
                     A                      A                      A
 Frequencies --   970.5358               978.2062               985.0257
 Red. masses --     4.1915                 6.6108                 5.5291
 Frc consts  --     2.3262                 3.7271                 3.1608
 IR Inten    --    66.0189               149.6327               254.7911
 Raman Activ --     1.6607                 1.2217                 4.9083

                    55                     56                     57
                     A                      A                      A
 Frequencies --   991.0880               998.6773              1020.5432
 Red. masses --     3.9972                 7.1065                 5.1103
 Frc consts  --     2.3133                 4.1760                 3.1359
 IR Inten    --   136.1456               122.9053               217.8015
 Raman Activ --     0.6742                 3.6385                 1.4371

                    58                     59                     60
                     A                      A                      A
 Frequencies --  1037.5046              1052.0205              1059.4548
 Red. masses --     3.4703                 2.9268                 2.1481
 Frc consts  --     2.2009                 1.9085                 1.4206
 IR Inten    --   184.7558                20.3350                45.8453
 Raman Activ --     1.0846                 4.2879                 1.1464

                    61                     62                     63
                     A                      A                      A
 Frequencies --  1068.1011              1072.4779              1077.0499
 Red. masses --     4.7307                 4.8446                 5.3217
 Frc consts  --     3.1798                 3.2831                 3.6373
 IR Inten    --    15.3307                78.3520                45.7380
 Raman Activ --    29.2704                 5.6597                 2.7405

                    64                     65                     66
                     A                      A                      A
 Frequencies --  1098.5316              1101.5716              1114.1556
 Red. masses --     2.6597                 3.4417                 3.0132
 Frc consts  --     1.8911                 2.4607                 2.2038
 IR Inten    --     3.3078                48.1615                24.0766
 Raman Activ --     4.7879                10.0811                 6.2781

                    67                     68                     69
                     A                      A                      A
 Frequencies --  1117.9706              1128.2092              1134.9541
 Red. masses --     3.0816                 2.6212                 2.0200
 Frc consts  --     2.2693                 1.9658                 1.5331
 IR Inten    --    68.4427                50.5672                24.9621
 Raman Activ --     5.1560                 8.0730                 3.3314

                    70                     71                     72
                     A                      A                      A
 Frequencies --  1140.7297              1151.3341              1156.0525
 Red. masses --     1.8421                 2.4263                 3.1692
 Frc consts  --     1.4123                 1.8950                 2.4955
 IR Inten    --    15.5615                10.2189                18.2160
 Raman Activ --     3.0773                 1.1581                 0.3940

                    73                     74                     75
                     A                      A                      A
 Frequencies --  1164.7038              1188.1175              1197.2687
 Red. masses --     1.8681                 1.9720                 1.7490
 Frc consts  --     1.4930                 1.6401                 1.4771
 IR Inten    --    14.1237                19.6967                27.0491
 Raman Activ --     1.4871                 2.4735                 1.2203

                    76                     77                     78
                     A                      A                      A
 Frequencies --  1204.0155              1213.5647              1225.1910
 Red. masses --     2.4974                 1.5551                 1.6147
 Frc consts  --     2.1330                 1.3494                 1.4280
 IR Inten    --    20.2483                 2.9707                16.8147
 Raman Activ --     1.0054                 3.6122                 2.0356

                    79                     80                     81
                     A                      A                      A
 Frequencies --  1255.6146              1269.1692              1281.6491
 Red. masses --     1.2470                 1.1995                 1.2959
 Frc consts  --     1.1583                 1.1384                 1.2542
 IR Inten    --     0.3913                 1.7383                12.3470
 Raman Activ --     1.1270                 1.6063                 1.4257

                    82                     83                     84
                     A                      A                      A
 Frequencies --  1284.2521              1292.7394              1296.0536
 Red. masses --     1.1662                 1.2671                 1.1973
 Frc consts  --     1.1332                 1.2476                 1.1849
 IR Inten    --     5.1385                53.6025                15.9469
 Raman Activ --     5.6538                 2.7948                 1.8055

                    85                     86                     87
                     A                      A                      A
 Frequencies --  1310.8239              1313.3052              1319.5057
 Red. masses --     1.3895                 1.3744                 1.4830
 Frc consts  --     1.4067                 1.3967                 1.5213
 IR Inten    --     2.2925                34.1663                 7.7909
 Raman Activ --     0.8359                 0.7253                 4.6281

                    88                     89                     90
                     A                      A                      A
 Frequencies --  1326.3585              1336.8446              1340.6407
 Red. masses --     1.1918                 1.2219                 1.1973
 Frc consts  --     1.2353                 1.2866                 1.2678
 IR Inten    --    12.9717                34.3667                40.6016
 Raman Activ --     5.6655                13.1514                 3.4506

                    91                     92                     93
                     A                      A                      A
 Frequencies --  1341.3137              1350.6794              1358.0910
 Red. masses --     1.2397                 1.1872                 1.3920
 Frc consts  --     1.3141                 1.2760                 1.5127
 IR Inten    --     7.8919                 3.0537                20.0485
 Raman Activ --     0.5893                 3.4530                 1.8921

                    94                     95                     96
                     A                      A                      A
 Frequencies --  1374.0536              1382.0654              1383.8067
 Red. masses --     1.2026                 1.1828                 1.3961
 Frc consts  --     1.3377                 1.3311                 1.5751
 IR Inten    --    19.3549                44.4186                11.7301
 Raman Activ --     2.2596                 4.2394                 7.4831

                    97                     98                     99
                     A                      A                      A
 Frequencies --  1407.4344              1416.1690              1436.0804
 Red. masses --     1.2483                 1.3113                 1.0918
 Frc consts  --     1.4569                 1.5494                 1.3267
 IR Inten    --    51.1514                 5.4038                16.1941
 Raman Activ --     0.5837                 5.7611                 6.7683

                   100                    101                    102
                     A                      A                      A
 Frequencies --  1440.7395              1444.3094              1453.1590
 Red. masses --     1.3545                 1.4842                 1.2366
 Frc consts  --     1.6565                 1.8241                 1.5386
 IR Inten    --     7.2541                20.5292                18.2372
 Raman Activ --     2.2690                 2.1969                10.9448

                   103                    104                    105
                     A                      A                      A
 Frequencies --  1464.5377              1466.5831              1471.4029
 Red. masses --     1.0951                 1.1600                 1.3473
 Frc consts  --     1.3839                 1.4700                 1.7186
 IR Inten    --     5.9368                 7.9739                47.4766
 Raman Activ --     3.8521                 2.8979                 3.0782

                   106                    107                    108
                     A                      A                      A
 Frequencies --  1475.6736              1491.0246              3235.4039
 Red. masses --     1.3408                 1.3077                 1.0807
 Frc consts  --     1.7203                 1.7128                 6.6653
 IR Inten    --    47.8829                21.0480                11.9662
 Raman Activ --     2.5474                 2.8288                18.8024

                   109                    110                    111
                     A                      A                      A
 Frequencies --  3250.9555              3257.9036              3262.3397
 Red. masses --     1.0815                 1.0575                 1.0620
 Frc consts  --     6.7344                 6.6129                 6.6594
 IR Inten    --    20.2365                39.3919                28.7794
 Raman Activ --    62.8147                89.1455                55.5167

                   112                    113                    114
                     A                      A                      A
 Frequencies --  3270.0999              3274.2326              3279.7014
 Red. masses --     1.0868                 1.0826                 1.0834
 Frc consts  --     6.8472                 6.8383                 6.8658
 IR Inten    --     1.5680                25.9702                12.4494
 Raman Activ --    30.4870               115.4954                 9.9778

                   115                    116                    117
                     A                      A                      A
 Frequencies --  3284.0842              3288.7479              3292.9538
 Red. masses --     1.0830                 1.0851                 1.0860
 Frc consts  --     6.8820                 6.9145                 6.9383
 IR Inten    --     6.1208                21.6598                28.6035
 Raman Activ --   150.3786                23.3390                17.5179

                   118                    119                    120
                     A                      A                      A
 Frequencies --  3299.3109              3306.5770              3313.9108
 Red. masses --     1.0843                 1.0870                 1.0900
 Frc consts  --     6.9543                 7.0023                 7.0528
 IR Inten    --    63.1305                49.4944               241.9745
 Raman Activ --    33.0819                15.4179                65.5641

                   121                    122                    123
                     A                      A                      A
 Frequencies --  3318.5142              3326.3367              3364.2129
 Red. masses --     1.0807                 1.1022                 1.0650
 Frc consts  --     7.0121                 7.1855                 7.1018
 IR Inten    --   336.3752                34.9220                50.4189
 Raman Activ --   153.3534                36.3300                89.9559

                   124                    125                    126
                     A                      A                      A
 Frequencies --  3370.0168              3375.3051              3377.1740
 Red. masses --     1.0703                 1.0666                 1.0669
 Frc consts  --     7.1616                 7.1594                 7.1696
 IR Inten    --    39.9532                34.5615                56.5531
 Raman Activ --   127.6204               151.0502               116.7597

                   127                    128                    129
                     A                      A                      A
 Frequencies --  3384.7220              3887.8296              3887.9914
 Red. masses --     1.0661                 1.0675                 1.0675
 Frc consts  --     7.1964                 9.5071                 9.5073
 IR Inten    --    52.3316               112.2416                34.3333
 Raman Activ --    72.0809                45.9938               176.1696

 - Thermochemistry -
 -------------------
 Temperature   298.150 Kelvin.  Pressure   1.00000 Atm.
 Atom     1 has atomic number  8 and mass  15.99491

 Molecular mass:   342.11621 amu.
 Principal axes and moments of inertia in atomic units:
                           1         2         3
     Eigenvalues --  4704.41689********************
           X            0.99997   0.00719  -0.00132
           Y           -0.00719   0.99997   0.00400
           Z            0.00135  -0.00399   0.99999
 This molecule is an asymmetric top.
 Rotational symmetry number  1.
 Warning -- assumption of classical behavior for rotation
           may cause significant error
 Rotational temperatures (Kelvin)      0.01841     0.00729     0.00541
 Rotational constants (GHZ):           0.38363     0.15191     0.11277
    6 imaginary frequencies ignored.
 Zero-point vibrational energy     978276.6 (Joules/Mol)
                                  233.81372 (Kcal/Mol)
 Warning -- explicit consideration of  33 degrees of freedom as
           vibrations may cause significant error
 Vibrational temperatures:     58.76    88.16    95.86   150.75   160.86
          (Kelvin)            177.64   227.57   237.10   276.94   300.02
                              347.70   381.90   404.58   417.93   443.60
                              452.16   475.91   500.22   521.30   537.03
                              581.40   599.86   612.95   639.54   642.19
                              717.59   730.49   773.80   777.03   803.78
                              854.75   876.60   890.32   915.26   948.97
                              970.32  1005.63  1024.57  1034.33  1126.65
                             1163.82  1179.06  1234.04  1354.72  1372.06
                             1396.38  1407.42  1417.23  1425.95  1436.87
                             1468.33  1492.74  1513.62  1524.32  1536.76
                             1543.05  1549.63  1580.54  1584.91  1603.02
                             1608.51  1623.24  1632.94  1641.25  1656.51
                             1663.30  1675.75  1709.43  1722.60  1732.31
                             1746.05  1762.77  1806.55  1826.05  1844.00
                             1847.75  1859.96  1864.73  1885.98  1889.55
                             1898.47  1908.33  1923.42  1928.88  1929.85
                             1943.32  1953.99  1976.95  1988.48  1990.99
                             2024.98  2037.55  2066.20  2072.90  2078.04
                             2090.77  2107.14  2110.08  2117.02  2123.16
                             2145.25  4655.02  4677.39  4687.39  4693.77
                             4704.94  4710.88  4718.75  4725.06  4731.77
                             4737.82  4746.97  4757.42  4767.97  4774.60
                             4785.85  4840.35  4848.70  4856.31  4858.99
                             4869.85  5593.71  5593.95

 Zero-point correction=                           0.372606 (Hartree/Particle)
 Thermal correction to Energy=                    0.391458
 Thermal correction to Enthalpy=                  0.392403
 Thermal correction to Gibbs Free Energy=         0.326307
 Sum of electronic and zero-point Energies=          -1297.588846
 Sum of electronic and thermal Energies=             -1297.569993
 Sum of electronic and thermal Enthalpies=           -1297.569049
 Sum of electronic and thermal Free Energies=        -1297.635144

                     E (Thermal)             CV                S
                      KCal/Mol        Cal/Mol-Kelvin    Cal/Mol-Kelvin
 Total                  245.644             77.466            139.109
 Electronic               0.000              0.000              0.000
 Translational            0.889              2.981             43.384
 Rotational               0.889              2.981             35.146
 Vibrational            243.866             71.504             60.578
 Vibration     1          0.594              1.981              5.218
 Vibration     2          0.597              1.973              4.416
 Vibration     3          0.598              1.970              4.251
 Vibration     4          0.605              1.945              3.364
 Vibration     5          0.607              1.940              3.237
 Vibration     6          0.610              1.929              3.045
 Vibration     7          0.621              1.893              2.572
 Vibration     8          0.623              1.886              2.494
 Vibration     9          0.634              1.850              2.204
 Vibration    10          0.642              1.828              2.057
 Vibration    11          0.658              1.777              1.791
 Vibration    12          0.671              1.736              1.626
 Vibration    13          0.681              1.708              1.526
 Vibration    14          0.686              1.691              1.471
 Vibration    15          0.698              1.658              1.371
 Vibration    16          0.702              1.646              1.340
 Vibration    17          0.713              1.614              1.256
 Vibration    18          0.725              1.580              1.177
 Vibration    19          0.736              1.550              1.112
 Vibration    20          0.745              1.527              1.066
 Vibration    21          0.769              1.461              0.948
 Vibration    22          0.780              1.433              0.902
 Vibration    23          0.788              1.414              0.872
 Vibration    24          0.804              1.373              0.813
 Vibration    25          0.806              1.369              0.807
 Vibration    26          0.854              1.253              0.661
 Vibration    27          0.863              1.233              0.639
 Vibration    28          0.893              1.166              0.570
 Vibration    29          0.895              1.161              0.565
 Vibration    30          0.914              1.121              0.527
 Vibration    31          0.952              1.044              0.460
 Vibration    32          0.968              1.012              0.434
 Vibration    33          0.979              0.992              0.418

 Normal termination of Gaussian 09 at Sat Apr  2 17:01:09 2016.
