 Gaussian 09, Revision B.01,
 Gaussian 09:  EM64L-G09RevB.01 12-Aug-2010

 -------------------------------------------------
 # freq=raman b3lyp/6-31+g(2d,p) geom=connectivity
 -------------------------------------------------

 -----------------
 483 9000/9000.com
 -----------------
 Symbolic Z-matrix:
 Charge =  0 Multiplicity = 1

                         Standard orientation:
 ---------------------------------------------------------------------
 Center     Atomic      Atomic             Coordinates (Angstroms)
 Number     Number       Type             X           Y           Z
 ---------------------------------------------------------------------
      1          8           0       -4.986699   -0.368023    0.436969
      2          6           0       -3.683462   -0.080885   -0.092367
      3          6           0       -3.223431    1.287716    0.384441
      4          8           0       -4.039984    2.332657   -0.164191
      5          1           0       -5.002443    2.090107   -0.037053
      6          6           0       -1.773295    1.566425    0.023512
      7          8           0       -1.066955    2.606577    0.715769
      8          1           0       -0.212452    2.784254    0.228882
      9          6           0       -2.990461   -2.481584   -0.417970
     10          8           0       -4.177344   -3.155572    0.023442
     11          1           0       -4.037262   -4.138038    0.150874
     12          6           0       -2.689969   -1.166907    0.283854
     13          8           0       -1.454249   -0.805753   -0.348155
     14          6           0       -0.862986    0.367635    0.229978
     15          8           0        0.255748    0.605110   -0.635059
     16          6           0        1.501128    0.243175   -0.022197
     17          6           0        1.929676   -1.190314   -0.290102
     18          8           0        0.865382   -2.081844    0.074197
     19          1           0        0.012923   -1.695280   -0.278338
     20          6           0        3.300998   -1.545118    0.263415
     21          8           0        3.643926   -2.864440   -0.186065
     22          1           0        4.598453   -2.967273    0.093087
     23          6           0        2.307315    2.620361   -0.068892
     24          8           0        1.177520    3.389496   -0.506514
     25          1           0        1.332008    4.374158   -0.423113
     26          6           0        2.600831    1.186734   -0.478978
     27          8           0        3.848413    0.826670    0.131974
     28          6           0        4.338490   -0.499896   -0.110999
     29          8           0        5.423514   -0.656700    0.815420
     30          1           0        6.239726   -0.800437    0.330921
     31          1           0        4.668424   -0.617553   -1.122038
     32          1           0        3.229656   -1.569155    1.330763
     33          1           0        2.022180   -1.270909   -1.353044
     34          1           0        1.389299    0.357960    1.035735
     35          1           0        2.696818    1.133199   -1.543319
     36          1           0        3.172660    3.187389   -0.341941
     37          1           0       -5.592238   -0.550869   -0.285174
     38          1           0       -2.158208   -3.137773   -0.270758
     39          1           0       -3.085398   -2.287792   -1.465983
     40          1           0       -2.584999   -1.282005    1.342454
     41          1           0       -3.756829   -0.053503   -1.159497
     42          1           0       -3.314054    1.317243    1.450188
     43          1           0       -1.752052    1.808632   -1.018498
     44          1           0       -0.574251    0.230581    1.251128
     45          1           0        2.264862    2.617595    1.000262
 ---------------------------------------------------------------------

 SCF Done:  E(RB3LYP) =  -1297.99368089     A.U. after   13 cycles

 The electronic state is 1-A.
 Alpha  occ. eigenvalues --  -19.18907 -19.18631 -19.18187 -19.18130 -19.18030
 Alpha  occ. eigenvalues --  -19.16481 -19.16417 -19.15808 -19.15189 -19.13204
 Alpha  occ. eigenvalues --  -19.12759 -10.31324 -10.29731 -10.26381 -10.25293
 Alpha  occ. eigenvalues --  -10.25211 -10.24842 -10.24816 -10.24722 -10.24106
 Alpha  occ. eigenvalues --  -10.23914 -10.23710 -10.23498  -1.10332  -1.09381
 Alpha  occ. eigenvalues --   -1.05587  -1.04948  -1.04004  -1.03729  -1.03064
 Alpha  occ. eigenvalues --   -1.02137  -1.01690  -1.00354  -0.99674  -0.82071
 Alpha  occ. eigenvalues --   -0.79885  -0.79350  -0.77955  -0.71726  -0.69809
 Alpha  occ. eigenvalues --   -0.67286  -0.64974  -0.63380  -0.62724  -0.61232
 Alpha  occ. eigenvalues --   -0.59876  -0.56609  -0.56024  -0.55311  -0.54581
 Alpha  occ. eigenvalues --   -0.54161  -0.53433  -0.52603  -0.51708  -0.51257
 Alpha  occ. eigenvalues --   -0.50818  -0.49754  -0.48919  -0.48300  -0.46613
 Alpha  occ. eigenvalues --   -0.46057  -0.44762  -0.44280  -0.43394  -0.43189
 Alpha  occ. eigenvalues --   -0.42354  -0.41606  -0.40918  -0.40311  -0.39388
 Alpha  occ. eigenvalues --   -0.38891  -0.38462  -0.37056  -0.36199  -0.35566
 Alpha  occ. eigenvalues --   -0.35276  -0.35097  -0.34547  -0.33795  -0.33469
 Alpha  occ. eigenvalues --   -0.32809  -0.31323  -0.30678  -0.30270  -0.29977
 Alpha  occ. eigenvalues --   -0.29400  -0.28759  -0.28191  -0.27519  -0.26253
 Alpha  occ. eigenvalues --   -0.25835
 Alpha virt. eigenvalues --   -0.02205  -0.02044  -0.01459   0.00005   0.00459
 Alpha virt. eigenvalues --    0.01217   0.02223   0.02393   0.03182   0.03589
 Alpha virt. eigenvalues --    0.03823   0.04493   0.05089   0.05656   0.05823

 Mulliken atomic charges:
              1
     1  O   -0.538917
     2  C   -0.049766
     3  C    0.385680
     4  O   -0.557880
     5  H    0.337670
     6  C   -0.231817
     7  O   -0.594263
     8  H    0.439177
     9  C   -0.253367
    10  O   -0.554503
    11  H    0.341486
    12  C    0.207936
    13  O   -0.238663
    14  C    0.307093
    15  O   -0.235410
    16  C   -0.031193
    17  C    0.151309
    18  O   -0.579301
    19  H    0.398788
    20  C    0.088226
    21  O   -0.532332
    22  H    0.327206
    23  C   -0.290399
    24  O   -0.586082
    25  H    0.365923
    26  C    0.044990
    27  O   -0.238174
    28  C    0.102274
    29  O   -0.515123
    30  H    0.332499
    31  H    0.135493
    32  H    0.134076
    33  H    0.109615
    34  H    0.111105
    35  H    0.123319
    36  H    0.142712
    37  H    0.340697
    38  H    0.147666
    39  H    0.144587
    40  H    0.117734
    41  H    0.121062
    42  H    0.124300
    43  H    0.138550
    44  H    0.145638
    45  H    0.160381
 Sum of Mulliken atomic charges =   0.00000

 Dipole moment (field-independent basis, Debye):
    X=              3.0851    Y=              0.1083    Z=             -2.1630  Tot=              3.7694
 Quadrupole moment (field-independent basis, Debye-Ang):
   XX=           -112.7199   YY=           -135.6129   ZZ=           -140.3548
   XY=             12.0940   XZ=             -1.1610   YZ=             -2.1912

  Exact polarizability: 233.249  -1.360 197.054   0.383  -0.302 143.523
 Approx polarizability: 274.226  -0.447 256.312   1.024  -1.732 239.517

 ******    7 imaginary frequencies (negative Signs) ******

                     1                      2                      3
                     A                      A                      A
 Frequencies --  -305.2974              -251.5701              -197.7663
 Red. masses --     1.7034                 1.2343                 1.6763
 Frc consts  --     0.0935                 0.0460                 0.0386
 IR Inten    --     4.3499                97.8179                11.8286
 Raman Activ --     0.0207                 0.7275                 0.2565

                     4                      5                      6
                     A                      A                      A
 Frequencies --  -179.5865               -55.7381               -32.8437
 Red. masses --     1.2246                 6.8904                 6.0940
 Frc consts  --     0.0233                 0.0126                 0.0039
 IR Inten    --    96.7996                 0.9535                 0.6444
 Raman Activ --     0.8443                 0.0209                 0.0341

                     7                      8                      9
                     A                      A                      A
 Frequencies --   -15.2954                35.3915                66.2409
 Red. masses --     6.3630                 6.7226                 6.6872
 Frc consts  --     0.0009                 0.0050                 0.0173
 IR Inten    --     1.3884                 0.7384                 3.6240
 Raman Activ --     0.0409                 0.0376                 0.0683

                    10                     11                     12
                     A                      A                      A
 Frequencies --    77.6286                95.2489               111.9589
 Red. masses --     6.8913                 6.2431                 6.0142
 Frc consts  --     0.0245                 0.0334                 0.0444
 IR Inten    --     1.8993                 0.4942                 1.5670
 Raman Activ --     0.0555                 0.2294                 0.1364

                    13                     14                     15
                     A                      A                      A
 Frequencies --   169.3148               175.8979               186.3491
 Red. masses --     6.3025                 5.7704                 7.1597
 Frc consts  --     0.1065                 0.1052                 0.1465
 IR Inten    --     7.0574                 0.9925                 0.4773
 Raman Activ --     0.3492                 0.3062                 0.4291

                    16                     17                     18
                     A                      A                      A
 Frequencies --   217.8320               234.7556               265.4201
 Red. masses --     7.0403                 6.1494                 4.5802
 Frc consts  --     0.1968                 0.1997                 0.1901
 IR Inten    --     0.6640                 1.2021                11.9304
 Raman Activ --     2.9271                 0.2623                 0.4007

                    19                     20                     21
                     A                      A                      A
 Frequencies --   281.1367               288.6604               300.7819
 Red. masses --     5.2043                 4.6316                 5.4091
 Frc consts  --     0.2424                 0.2274                 0.2883
 IR Inten    --     1.6676                 5.6574                11.5958
 Raman Activ --     0.1933                 0.4196                 0.1989

                    22                     23                     24
                     A                      A                      A
 Frequencies --   317.3409               324.1534               336.5677
 Red. masses --     5.4704                 4.5898                 6.6003
 Frc consts  --     0.3246                 0.2841                 0.4405
 IR Inten    --     3.4814                 6.9147                 5.3258
 Raman Activ --     4.4764                 0.1920                 3.3171

                    25                     26                     27
                     A                      A                      A
 Frequencies --   347.5462               371.8705               393.4005
 Red. masses --     6.9639                 4.8784                 6.6503
 Frc consts  --     0.4956                 0.3975                 0.6064
 IR Inten    --     4.3952                 2.0513                 0.3455
 Raman Activ --     2.4108                 0.5730                 0.8900

                    28                     29                     30
                     A                      A                      A
 Frequencies --   409.4006               422.0673               436.5076
 Red. masses --     5.1426                 5.9047                 4.7321
 Frc consts  --     0.5078                 0.6197                 0.5312
 IR Inten    --    13.3231                11.1673                 3.5529
 Raman Activ --     2.4852                 7.0918                 1.2633

                    31                     32                     33
                     A                      A                      A
 Frequencies --   442.1428               481.0308               493.8760
 Red. masses --     5.1104                 4.4508                 3.3954
 Frc consts  --     0.5886                 0.6068                 0.4879
 IR Inten    --     6.7079                 5.0215                13.2627
 Raman Activ --     2.8875                 3.1528                 0.6202

                    34                     35                     36
                     A                      A                      A
 Frequencies --   513.0175               533.7625               568.0279
 Red. masses --     3.8782                 3.2856                 4.1725
 Frc consts  --     0.6014                 0.5515                 0.7932
 IR Inten    --     1.8802                11.2245                 7.5127
 Raman Activ --     4.2281                 2.5010                 1.2688

                    37                     38                     39
                     A                      A                      A
 Frequencies --   586.0961               602.7285               626.7790
 Red. masses --     3.1265                 5.2461                 4.3388
 Frc consts  --     0.6328                 1.1229                 1.0043
 IR Inten    --    35.0073                 4.2140                44.7475
 Raman Activ --     0.7312                 0.8576                 0.4487

                    40                     41                     42
                     A                      A                      A
 Frequencies --   646.4974               663.7397               685.9713
 Red. masses --     4.0628                 1.2812                 1.0890
 Frc consts  --     1.0005                 0.3325                 0.3019
 IR Inten    --    21.4904                84.2388               146.6285
 Raman Activ --     0.6928                 1.5491                 1.2905

                    43                     44                     45
                     A                      A                      A
 Frequencies --   697.0121               748.3612               755.5291
 Red. masses --     3.7255                 1.0859                 1.0600
 Frc consts  --     1.0664                 0.3583                 0.3565
 IR Inten    --     4.0443                90.7809                96.0607
 Raman Activ --     1.8943                 1.7957                 1.7748

                    46                     47                     48
                     A                      A                      A
 Frequencies --   844.6738               849.7627               858.9809
 Red. masses --     1.4433                 1.5828                 1.2503
 Frc consts  --     0.6067                 0.6734                 0.5435
 IR Inten    --    58.6792                19.6005                50.8279
 Raman Activ --     0.5618                 1.1451                 1.0631

                    49                     50                     51
                     A                      A                      A
 Frequencies --   903.1060               926.4488               951.1861
 Red. masses --     1.2076                 5.5667                 5.0257
 Frc consts  --     0.5803                 2.8151                 2.6790
 IR Inten    --    65.7444               168.7484                 6.3382
 Raman Activ --     0.6120                 2.3314                 1.2687

                    52                     53                     54
                     A                      A                      A
 Frequencies --   976.4691               981.4795               990.8770
 Red. masses --     5.7368                 5.2786                 5.2600
 Frc consts  --     3.2228                 2.9959                 3.0428
 IR Inten    --    71.4296               167.8853                17.9022
 Raman Activ --     3.3217                 1.9156                 1.4641

                    55                     56                     57
                     A                      A                      A
 Frequencies --  1004.7724              1011.1835              1021.0500
 Red. masses --     6.0364                 6.1094                 6.1068
 Frc consts  --     3.5906                 3.6805                 3.7511
 IR Inten    --   287.7575                42.0686               114.9169
 Raman Activ --     1.9642                 1.4059                 4.0083

                    58                     59                     60
                     A                      A                      A
 Frequencies --  1040.6101              1052.3194              1068.2502
 Red. masses --     5.0831                 5.3884                 4.0772
 Frc consts  --     3.2430                 3.5157                 2.7413
 IR Inten    --   347.9449                87.6104                48.2143
 Raman Activ --     3.0356                14.0124                 0.6599

                    61                     62                     63
                     A                      A                      A
 Frequencies --  1069.5053              1073.1664              1075.2045
 Red. masses --     5.0453                 3.4012                 5.2481
 Frc consts  --     3.4002                 2.3079                 3.5747
 IR Inten    --   142.2441                27.6525                38.2893
 Raman Activ --     3.3373                15.1570                 4.4297

                    64                     65                     66
                     A                      A                      A
 Frequencies --  1087.2334              1106.1533              1115.5095
 Red. masses --     3.3149                 2.8469                 2.4931
 Frc consts  --     2.3087                 2.0523                 1.8278
 IR Inten    --    69.2146                27.7243                 1.8406
 Raman Activ --    15.4446                 3.1107                 2.8925

                    67                     68                     69
                     A                      A                      A
 Frequencies --  1118.0410              1122.7121              1131.1174
 Red. masses --     3.3142                 2.8863                 1.8977
 Frc consts  --     2.4408                 2.1435                 1.4305
 IR Inten    --    33.2758                25.2085                22.4346
 Raman Activ --     5.2886                 1.0720                 3.1995

                    70                     71                     72
                     A                      A                      A
 Frequencies --  1133.5889              1144.2669              1155.7580
 Red. masses --     2.8696                 1.8866                 1.7562
 Frc consts  --     2.1726                 1.4554                 1.3821
 IR Inten    --    45.7574                24.8221                 4.8319
 Raman Activ --     2.3184                 6.6323                 6.2114

                    73                     74                     75
                     A                      A                      A
 Frequencies --  1165.1696              1168.9193              1182.4478
 Red. masses --     1.6477                 1.6611                 1.7621
 Frc consts  --     1.3180                 1.3373                 1.4516
 IR Inten    --    14.6837                19.2305                10.8533
 Raman Activ --     1.3358                 2.1711                 3.4356

                    76                     77                     78
                     A                      A                      A
 Frequencies --  1202.0398              1211.0988              1218.1614
 Red. masses --     1.3674                 1.3619                 1.3442
 Frc consts  --     1.1641                 1.1769                 1.1753
 IR Inten    --    19.1659                19.0980                 4.5219
 Raman Activ --     2.3237                 2.9954                 2.0750

                    79                     80                     81
                     A                      A                      A
 Frequencies --  1228.2036              1240.6062              1256.2297
 Red. masses --     1.2099                 1.2074                 1.1965
 Frc consts  --     1.0753                 1.0949                 1.1125
 IR Inten    --     2.7818                 6.4093                 9.2554
 Raman Activ --     2.6205                 1.5634                 1.0191

                    82                     83                     84
                     A                      A                      A
 Frequencies --  1259.3674              1281.0555              1287.3223
 Red. masses --     1.3248                 1.3821                 1.2609
 Frc consts  --     1.2380                 1.3364                 1.2311
 IR Inten    --    16.9760                15.9735                15.1547
 Raman Activ --     0.9790                 0.9121                 1.7922

                    85                     86                     87
                     A                      A                      A
 Frequencies --  1289.0874              1293.7357              1307.5311
 Red. masses --     1.2634                 1.2805                 1.2748
 Frc consts  --     1.2370                 1.2628                 1.2841
 IR Inten    --     7.1504                23.7894                 8.1692
 Raman Activ --     4.2633                 4.1302                 3.1352

                    88                     89                     90
                     A                      A                      A
 Frequencies --  1314.0832              1323.7104              1330.8262
 Red. masses --     1.3321                 1.3203                 1.3562
 Frc consts  --     1.3553                 1.3630                 1.4152
 IR Inten    --    25.3697                 6.1742                29.9584
 Raman Activ --     1.8082                 8.1248                 5.1095

                    91                     92                     93
                     A                      A                      A
 Frequencies --  1339.9068              1341.1001              1349.4972
 Red. masses --     1.2261                 1.1836                 1.2144
 Frc consts  --     1.2970                 1.2542                 1.3031
 IR Inten    --    23.5387                39.5568                45.4673
 Raman Activ --     4.6926                 3.9988                 4.8975

                    94                     95                     96
                     A                      A                      A
 Frequencies --  1355.6520              1363.1233              1367.4431
 Red. masses --     1.1546                 1.5584                 1.5170
 Frc consts  --     1.2502                 1.7061                 1.6713
 IR Inten    --    13.9201                16.1461                17.3320
 Raman Activ --     1.1878                 8.2019                 5.1566

                    97                     98                     99
                     A                      A                      A
 Frequencies --  1374.5977              1387.8544              1404.2402
 Red. masses --     1.5873                 1.3944                 1.4557
 Frc consts  --     1.7670                 1.5825                 1.6912
 IR Inten    --     9.5422                 1.8589                 2.0501
 Raman Activ --     8.2980                 4.5464                 6.3596

                   100                    101                    102
                     A                      A                      A
 Frequencies --  1424.3662              1438.9687              1454.5736
 Red. masses --     1.4053                 1.3665                 1.3353
 Frc consts  --     1.6799                 1.6671                 1.6645
 IR Inten    --    54.2512                21.6429                15.3684
 Raman Activ --     1.4536                 2.6863                 0.8939

                   103                    104                    105
                     A                      A                      A
 Frequencies --  1463.0081              1468.2341              1474.0927
 Red. masses --     1.3752                 1.0876                 1.1009
 Frc consts  --     1.7343                 1.3814                 1.4094
 IR Inten    --    33.6500                 4.9021                 7.2030
 Raman Activ --     1.3660                 3.2880                 3.6746

                   106                    107                    108
                     A                      A                      A
 Frequencies --  1482.3520              1516.0596              3234.3087
 Red. masses --     1.3185                 1.2605                 1.0689
 Frc consts  --     1.7070                 1.7069                 6.5878
 IR Inten    --    35.5386                53.8094               264.7317
 Raman Activ --     2.5019                 2.5336               229.1024

                   109                    110                    111
                     A                      A                      A
 Frequencies --  3247.7174              3260.0810              3261.3872
 Red. masses --     1.0702                 1.0717                 1.0572
 Frc consts  --     6.6510                 6.7107                 6.6255
 IR Inten    --  1279.7918                78.6690                24.4054
 Raman Activ --    73.5891                68.5661                41.9853

                   112                    113                    114
                     A                      A                      A
 Frequencies --  3263.8851              3270.7625              3275.1873
 Red. masses --     1.0670                 1.0827                 1.0819
 Frc consts  --     6.6971                 6.8244                 6.8377
 IR Inten    --   247.4905                 0.7781                18.2370
 Raman Activ --   196.8204                36.1594               130.6218

                   115                    116                    117
                     A                      A                      A
 Frequencies --  3282.0650              3283.1769              3285.6642
 Red. masses --     1.0848                 1.0844                 1.0858
 Frc consts  --     6.8847                 6.8871                 6.9065
 IR Inten    --    10.4794                 3.7295                 8.2760
 Raman Activ --    87.2609                29.6789                41.3759

                   118                    119                    120
                     A                      A                      A
 Frequencies --  3292.3373              3297.6102              3298.9754
 Red. masses --     1.0852                 1.0874                 1.0878
 Frc consts  --     6.9309                 6.9666                 6.9752
 IR Inten    --    33.0943                62.2136                 2.8044
 Raman Activ --    77.0042                13.2085                15.3671

                   121                    122                    123
                     A                      A                      A
 Frequencies --  3307.1738              3311.5556              3321.7184
 Red. masses --     1.0886                 1.1020                 1.1042
 Frc consts  --     7.0152                 7.1203                 7.1783
 IR Inten    --    42.9658                64.7170                54.5981
 Raman Activ --    51.3377                36.4168                24.5187

                   124                    125                    126
                     A                      A                      A
 Frequencies --  3359.7173              3363.7267              3368.8635
 Red. masses --     1.0656                 1.0711                 1.0651
 Frc consts  --     7.0865                 7.1403                 7.1221
 IR Inten    --    29.8104                39.6189                24.6161
 Raman Activ --   123.5529               158.4076               123.2327

                   127                    128                    129
                     A                      A                      A
 Frequencies --  3372.0270              3888.6868              3891.1650
 Red. masses --     1.0679                 1.0676                 1.0675
 Frc consts  --     7.1545                 9.5122                 9.5227
 IR Inten    --    82.6646                74.2790                70.4681
 Raman Activ --   158.9516                83.1394               131.7365

 - Thermochemistry -
 -------------------
 Temperature   298.150 Kelvin.  Pressure   1.00000 Atm.
 Atom     1 has atomic number  8 and mass  15.99491

 Molecular mass:   342.11621 amu.
 Principal axes and moments of inertia in atomic units:
                           1         2         3
     Eigenvalues --  4421.64030********************
           X            0.99998   0.00685   0.00003
           Y           -0.00685   0.99998   0.00139
           Z           -0.00003  -0.00139   1.00000
 This molecule is an asymmetric top.
 Rotational symmetry number  1.
 Warning -- assumption of classical behavior for rotation
           may cause significant error
 Rotational temperatures (Kelvin)      0.01959     0.00722     0.00543
 Rotational constants (GHZ):           0.40816     0.15043     0.11318
    7 imaginary frequencies ignored.
 Zero-point vibrational energy     975111.6 (Joules/Mol)
                                  233.05726 (Kcal/Mol)
 Warning -- explicit consideration of  31 degrees of freedom as
           vibrations may cause significant error
 Vibrational temperatures:     50.92    95.31   111.69   137.04   161.08
          (Kelvin)            243.61   253.08   268.11   313.41   337.76
                              381.88   404.49   415.32   432.76   456.58
                              466.38   484.25   500.04   535.04   566.01
                              589.04   607.26   628.04   636.14   692.10
                              710.58   738.12   767.96   817.26   843.26
                              867.19   901.79   930.16   954.97   986.96
                             1002.84  1076.72  1087.04  1215.30  1222.62
                             1235.88  1299.37  1332.95  1368.54  1404.92
                             1412.13  1425.65  1445.64  1454.87  1469.06
                             1497.20  1514.05  1536.97  1538.78  1544.05
                             1546.98  1564.28  1591.51  1604.97  1608.61
                             1615.33  1627.42  1630.98  1646.34  1662.88
                             1676.42  1681.81  1701.28  1729.47  1742.50
                             1752.66  1767.11  1784.95  1807.43  1811.95
                             1843.15  1852.17  1854.71  1861.39  1881.24
                             1890.67  1904.52  1914.76  1927.82  1929.54
                             1941.62  1950.48  1961.23  1967.44  1977.74
                             1996.81  2020.39  2049.34  2070.35  2092.80
                             2104.94  2112.46  2120.89  2132.77  2181.27
                             4653.44  4672.74  4690.52  4692.40  4696.00
                             4705.89  4712.26  4722.15  4723.75  4727.33
                             4736.93  4744.52  4746.48  4758.28  4764.58
                             4779.21  4833.88  4839.65  4847.04  4851.59
                             5594.95  5598.51

 Zero-point correction=                           0.371400 (Hartree/Particle)
 Thermal correction to Energy=                    0.389581
 Thermal correction to Enthalpy=                  0.390525
 Thermal correction to Gibbs Free Energy=         0.325880
 Sum of electronic and zero-point Energies=          -1297.622280
 Sum of electronic and thermal Energies=             -1297.604100
 Sum of electronic and thermal Enthalpies=           -1297.603156
 Sum of electronic and thermal Free Energies=        -1297.667800

                     E (Thermal)             CV                S
                      KCal/Mol        Cal/Mol-Kelvin    Cal/Mol-Kelvin
 Total                  244.466             75.521            136.056
 Electronic               0.000              0.000              0.000
 Translational            0.889              2.981             43.384
 Rotational               0.889              2.981             35.091
 Vibrational            242.688             69.559             57.580
 Vibration     1          0.594              1.982              5.502
 Vibration     2          0.598              1.970              4.262
 Vibration     3          0.599              1.964              3.950
 Vibration     4          0.603              1.953              3.549
 Vibration     5          0.607              1.940              3.235
 Vibration     6          0.625              1.880              2.443
 Vibration     7          0.628              1.872              2.372
 Vibration     8          0.632              1.859              2.264
 Vibration     9          0.646              1.814              1.977
 Vibration    10          0.655              1.788              1.842
 Vibration    11          0.671              1.736              1.626
 Vibration    12          0.681              1.709              1.527
 Vibration    13          0.685              1.695              1.482
 Vibration    14          0.693              1.672              1.413
 Vibration    15          0.704              1.640              1.324
 Vibration    16          0.709              1.627              1.289
 Vibration    17          0.717              1.602              1.228
 Vibration    18          0.725              1.580              1.177
 Vibration    19          0.744              1.530              1.072
 Vibration    20          0.761              1.484              0.987
 Vibration    21          0.774              1.450              0.929
 Vibration    22          0.784              1.422              0.885
 Vibration    23          0.797              1.391              0.838
 Vibration    24          0.802              1.378              0.820
 Vibration    25          0.837              1.292              0.707
 Vibration    26          0.850              1.264              0.674
 Vibration    27          0.868              1.221              0.626
 Vibration    28          0.889              1.175              0.579
 Vibration    29          0.924              1.100              0.508
 Vibration    30          0.943              1.061              0.474
 Vibration    31          0.961              1.026              0.445

 Normal termination of Gaussian 09 at Thu Mar 31 01:38:10 2016.
