 Gaussian 09, Revision B.01,
 Gaussian 09:  EM64L-G09RevB.01 12-Aug-2010

 -------------------------------------------------
 # freq=raman b3lyp/6-31+g(2d,p) geom=connectivity
 -------------------------------------------------

 -----------------
 550 5241/5241.com
 -----------------
 Symbolic Z-matrix:
 Charge =  0 Multiplicity = 1

                         Standard orientation:
 ---------------------------------------------------------------------
 Center     Atomic      Atomic             Coordinates (Angstroms)
 Number     Number       Type             X           Y           Z
 ---------------------------------------------------------------------
      1          8           0        5.009413    0.229451    0.669486
      2          6           0        4.010846   -0.036377   -0.326103
      3          6           0        3.366408   -1.297873    0.223241
      4          8           0        4.118778   -2.463812   -0.143583
      5          1           0        5.050815   -2.101901   -0.166247
      6          6           0        1.891878   -1.642147    0.083099
      7          8           0        1.319340   -2.588402    0.996871
      8          1           0        1.544988   -3.553449    0.862048
      9          6           0        3.412387    2.465659   -0.315986
     10          8           0        2.609071    3.650265   -0.212453
     11          1           0        3.302622    4.368361   -0.275485
     12          6           0        2.947849    1.031504   -0.120790
     13          8           0        1.660720    0.724089   -0.674338
     14          6           0        1.161557   -0.312893    0.183698
     15          8           0       -0.074351   -0.437141   -0.534213
     16          6           0       -1.353156   -0.206509    0.073992
     17          6           0       -1.857152    1.201501   -0.198734
     18          8           0       -0.985815    2.222628    0.309466
     19          1           0       -0.122054    2.133157   -0.187382
     20          6           0       -3.238142    1.491403    0.366691
     21          8           0       -3.654428    2.842408    0.120766
     22          1           0       -2.839506    3.345268    0.409281
     23          6           0       -2.037623   -2.588082   -0.092762
     24          8           0       -2.980751   -3.570232   -0.545863
     25          1           0       -3.160153   -3.616794   -1.528094
     26          6           0       -2.438241   -1.156276   -0.405632
     27          8           0       -3.742538   -0.783408    0.062659
     28          6           0       -4.297335    0.524862   -0.136262
     29          8           0       -5.529668    0.562306    0.599337
     30          1           0       -6.238626    0.213736    0.053922
     31          1           0       -4.483627    0.690733   -1.176782
     32          1           0       -3.176088    1.367869    1.427723
     33          1           0       -1.911400    1.321988   -1.260543
     34          1           0       -1.246436   -0.326091    1.131920
     35          1           0       -2.465551   -1.074666   -1.472166
     36          1           0       -1.926809   -2.686423    0.966931
     37          1           0       -1.092745   -2.785491   -0.554428
     38          1           0        5.875239    0.001382    0.323176
     39          1           0        4.216663    2.603245    0.376191
     40          1           0        3.843996    2.496554   -1.294587
     41          1           0        2.768097    0.984417    0.932952
     42          1           0        4.382218   -0.120874   -1.326025
     43          1           0        3.505737   -1.209011    1.280403
     44          1           0        1.742617   -2.021727   -0.906113
     45          1           0        1.016194    0.015878    1.191507
 ---------------------------------------------------------------------

 SCF Done:  E(RB3LYP) =  -1297.94632426     A.U. after   14 cycles

 The electronic state is 1-A.
 Alpha  occ. eigenvalues --  -19.19835 -19.19102 -19.17882 -19.17826 -19.17210
 Alpha  occ. eigenvalues --  -19.16469 -19.15821 -19.15751 -19.15011 -19.14411
 Alpha  occ. eigenvalues --  -19.14225 -10.31194 -10.29060 -10.28217 -10.26474
 Alpha  occ. eigenvalues --  -10.26360 -10.25435 -10.24872 -10.24543 -10.24232
 Alpha  occ. eigenvalues --  -10.23739 -10.23290 -10.22860  -1.10721  -1.08358
 Alpha  occ. eigenvalues --   -1.06497  -1.05088  -1.04062  -1.03584  -1.03444
 Alpha  occ. eigenvalues --   -1.02406  -1.01133  -1.00298  -0.99953  -0.82651
 Alpha  occ. eigenvalues --   -0.81860  -0.78431  -0.77535  -0.72650  -0.69969
 Alpha  occ. eigenvalues --   -0.67881  -0.64732  -0.63037  -0.62721  -0.61812
 Alpha  occ. eigenvalues --   -0.59476  -0.57732  -0.56786  -0.54825  -0.54049
 Alpha  occ. eigenvalues --   -0.53615  -0.53267  -0.52772  -0.52119  -0.51002
 Alpha  occ. eigenvalues --   -0.50104  -0.49598  -0.48336  -0.47403  -0.46864
 Alpha  occ. eigenvalues --   -0.45903  -0.45407  -0.44746  -0.43863  -0.43396
 Alpha  occ. eigenvalues --   -0.43102  -0.42443  -0.40747  -0.40364  -0.40027
 Alpha  occ. eigenvalues --   -0.39163  -0.38643  -0.36799  -0.36497  -0.36191
 Alpha  occ. eigenvalues --   -0.35798  -0.34938  -0.34062  -0.33603  -0.33118
 Alpha  occ. eigenvalues --   -0.31355  -0.31025  -0.30824  -0.30601  -0.30267
 Alpha  occ. eigenvalues --   -0.29292  -0.28869  -0.28496  -0.27101  -0.26713
 Alpha  occ. eigenvalues --   -0.25637
 Alpha virt. eigenvalues --   -0.04185  -0.02369  -0.01056  -0.00416   0.00523
 Alpha virt. eigenvalues --    0.01145   0.01448   0.01861   0.02642   0.02923
 Alpha virt. eigenvalues --    0.03421   0.04368   0.04825   0.05317   0.05441

 Mulliken atomic charges:
              1
     1  O   -0.509244
     2  C   -0.182352
     3  C    0.347031
     4  O   -0.563081
     5  H    0.307597
     6  C   -0.115309
     7  O   -0.568368
     8  H    0.357688
     9  C   -0.321934
    10  O   -0.487813
    11  H    0.333311
    12  C    0.249985
    13  O   -0.250663
    14  C    0.050025
    15  O   -0.247669
    16  C    0.200276
    17  C    0.243075
    18  O   -0.583720
    19  H    0.372481
    20  C   -0.012308
    21  O   -0.531946
    22  H    0.351397
    23  C   -0.077179
    24  O   -0.512375
    25  H    0.321568
    26  C   -0.161987
    27  O   -0.251143
    28  C    0.215603
    29  O   -0.491385
    30  H    0.324891
    31  H    0.118341
    32  H    0.126543
    33  H    0.117257
    34  H    0.107759
    35  H    0.096572
    36  H    0.157232
    37  H    0.156059
    38  H    0.327760
    39  H    0.163730
    40  H    0.130542
    41  H    0.110899
    42  H    0.143122
    43  H    0.146924
    44  H    0.136822
    45  H    0.153988
 Sum of Mulliken atomic charges =   0.00000

 Dipole moment (field-independent basis, Debye):
    X=              8.8715    Y=             -0.4795    Z=             -3.2326  Tot=              9.4542
 Quadrupole moment (field-independent basis, Debye-Ang):
   XX=           -114.5082   YY=           -145.8944   ZZ=           -137.3362
   XY=             11.1047   XZ=              7.5871   YZ=              3.1111

  Exact polarizability: 228.800  -0.410 200.831  -0.312   0.738 145.924
 Approx polarizability: 272.545   0.782 259.173  -0.623   1.751 243.088

 ******    8 imaginary frequencies (negative Signs) ******

                     1                      2                      3
                     A                      A                      A
 Frequencies --  -343.1640              -279.6702              -228.8778
 Red. masses --     1.6634                 1.2399                 1.1067
 Frc consts  --     0.1154                 0.0571                 0.0342
 IR Inten    --     2.2918                89.3901               107.1733
 Raman Activ --     0.2487                 0.9511                 1.4405

                     4                      5                      6
                     A                      A                      A
 Frequencies --  -150.4829               -84.6335               -59.5861
 Red. masses --     1.8960                 5.5244                 5.9869
 Frc consts  --     0.0253                 0.0233                 0.0125
 IR Inten    --     6.9842                 3.8123                 1.0583
 Raman Activ --     0.1474                 0.0115                 0.0428

                     7                      8                      9
                     A                      A                      A
 Frequencies --   -44.7963               -24.3520                34.9296
 Red. masses --     5.6450                 7.3760                 5.6962
 Frc consts  --     0.0067                 0.0026                 0.0041
 IR Inten    --     0.6217                 0.0877                 1.5355
 Raman Activ --     0.0656                 0.0605                 0.0707

                    10                     11                     12
                     A                      A                      A
 Frequencies --    64.3353                99.0984               115.8830
 Red. masses --     6.2870                 6.5775                 5.4539
 Frc consts  --     0.0153                 0.0381                 0.0432
 IR Inten    --     0.6367                 3.9342                 1.3099
 Raman Activ --     0.1815                 0.3854                 0.1342

                    13                     14                     15
                     A                      A                      A
 Frequencies --   118.7747               125.5547               160.4640
 Red. masses --     6.8259                 7.1998                 6.6549
 Frc consts  --     0.0567                 0.0669                 0.1010
 IR Inten    --     0.8659                 0.4287                 0.8881
 Raman Activ --     0.2530                 0.3697                 0.4565

                    16                     17                     18
                     A                      A                      A
 Frequencies --   184.7087               202.0121               249.4724
 Red. masses --     5.3158                 6.8519                 5.6160
 Frc consts  --     0.1069                 0.1647                 0.2059
 IR Inten    --     4.7695                 0.2846                 3.6616
 Raman Activ --     0.6293                 2.0733                 0.6370

                    19                     20                     21
                     A                      A                      A
 Frequencies --   265.8838               284.6161               289.6434
 Red. masses --     4.5589                 5.7303                 6.5230
 Frc consts  --     0.1899                 0.2735                 0.3224
 IR Inten    --     6.8778                 3.2507                 1.0619
 Raman Activ --     0.1646                 1.0725                 1.1144

                    22                     23                     24
                     A                      A                      A
 Frequencies --   305.3612               313.3821               329.0262
 Red. masses --     5.6372                 5.3723                 7.1249
 Frc consts  --     0.3097                 0.3109                 0.4545
 IR Inten    --     3.2723                 2.3175                 0.7679
 Raman Activ --     0.1692                 1.9569                 4.2965

                    25                     26                     27
                     A                      A                      A
 Frequencies --   335.4633               346.4894               373.5886
 Red. masses --     6.1685                 5.6760                 4.1093
 Frc consts  --     0.4090                 0.4015                 0.3379
 IR Inten    --     6.4318                 8.6186                 3.9266
 Raman Activ --     3.1752                 1.1344                 1.5455

                    28                     29                     30
                     A                      A                      A
 Frequencies --   408.9895               413.0809               442.5798
 Red. masses --     4.6624                 6.0560                 3.9047
 Frc consts  --     0.4595                 0.6088                 0.4506
 IR Inten    --     6.2132                 4.9860                15.3376
 Raman Activ --     3.7616                 5.0987                 0.8170

                    31                     32                     33
                     A                      A                      A
 Frequencies --   445.6839               474.2330               500.1784
 Red. masses --     5.2139                 4.7655                 3.9671
 Frc consts  --     0.6102                 0.6315                 0.5848
 IR Inten    --     1.2425                 4.2666                 5.3944
 Raman Activ --     1.5450                 0.5685                 0.9833

                    34                     35                     36
                     A                      A                      A
 Frequencies --   522.7886               540.8577               548.3511
 Red. masses --     4.1843                 3.6510                 6.4376
 Frc consts  --     0.6738                 0.6293                 1.1405
 IR Inten    --    13.9412                32.4201                 4.6506
 Raman Activ --     5.8042                 3.3612                 2.5298

                    37                     38                     39
                     A                      A                      A
 Frequencies --   587.1177               596.5882               610.4253
 Red. masses --     3.0985                 2.8400                 2.8758
 Frc consts  --     0.6293                 0.5956                 0.6314
 IR Inten    --    37.6493                44.1669                14.7681
 Raman Activ --     0.9159                 0.4598                 0.5862

                    40                     41                     42
                     A                      A                      A
 Frequencies --   627.4078               639.0065               655.0266
 Red. masses --     1.5589                 1.9486                 1.2814
 Frc consts  --     0.3616                 0.4688                 0.3239
 IR Inten    --   121.3900                32.8523                62.5464
 Raman Activ --     0.8728                 1.1166                 1.2578

                    43                     44                     45
                     A                      A                      A
 Frequencies --   675.7726               706.9258               717.8643
 Red. masses --     2.5563                 1.1318                 1.1353
 Frc consts  --     0.6878                 0.3333                 0.3447
 IR Inten    --    30.8029                54.6492               104.0376
 Raman Activ --     0.5926                 1.2437                 1.4849

                    46                     47                     48
                     A                      A                      A
 Frequencies --   768.2453               804.7953               813.2341
 Red. masses --     1.1083                 1.0930                 2.5523
 Frc consts  --     0.3854                 0.4171                 0.9945
 IR Inten    --   112.7501                99.4114                24.3774
 Raman Activ --     1.3111                 3.4812                 2.0557

                    49                     50                     51
                     A                      A                      A
 Frequencies --   845.0494               924.6772               937.2908
 Red. masses --     2.9299                 6.1396                 6.7074
 Frc consts  --     1.2327                 3.0929                 3.4718
 IR Inten    --     7.3030               263.7045               106.1076
 Raman Activ --     6.6241                 9.6416                 1.0463

                    52                     53                     54
                     A                      A                      A
 Frequencies --   967.7528               969.8144               990.7930
 Red. masses --     5.0385                 4.7119                 6.5836
 Frc consts  --     2.7802                 2.6111                 3.8079
 IR Inten    --    81.9506               138.8026               284.8969
 Raman Activ --     2.7777                 0.5498                 1.1060

                    55                     56                     57
                     A                      A                      A
 Frequencies --   998.0911              1006.6780              1025.1912
 Red. masses --     4.6187                 4.5536                 5.3167
 Frc consts  --     2.7109                 2.7188                 3.2923
 IR Inten    --    15.0519                84.1310               241.4250
 Raman Activ --     4.6044                 3.0312                 1.1076

                    58                     59                     60
                     A                      A                      A
 Frequencies --  1030.0811              1037.0490              1047.0005
 Red. masses --     3.9361                 2.5214                 6.4961
 Frc consts  --     2.4607                 1.5977                 4.1956
 IR Inten    --   114.5023                17.8832                38.6709
 Raman Activ --     1.7504                 6.0087                10.6240

                    61                     62                     63
                     A                      A                      A
 Frequencies --  1052.9480              1059.9531              1064.1141
 Red. masses --     2.9889                 3.6733                 2.5848
 Frc consts  --     1.9524                 2.4316                 1.7244
 IR Inten    --    31.0307               116.9210                 7.1650
 Raman Activ --     2.9556                 6.2578                 8.7673

                    64                     65                     66
                     A                      A                      A
 Frequencies --  1081.7040              1094.8433              1112.5206
 Red. masses --     3.1902                 2.7946                 2.4242
 Frc consts  --     2.1993                 1.9736                 1.7678
 IR Inten    --   112.8820                14.6749                19.5980
 Raman Activ --    10.2679                 1.0542                 3.3913

                    67                     68                     69
                     A                      A                      A
 Frequencies --  1115.4828              1122.1141              1127.8658
 Red. masses --     2.8220                 2.3130                 2.4248
 Frc consts  --     2.0689                 1.7159                 1.8173
 IR Inten    --    61.5074                43.8233                 4.6181
 Raman Activ --     7.9336                 0.4612                 7.8636

                    70                     71                     72
                     A                      A                      A
 Frequencies --  1143.0904              1149.9841              1158.2438
 Red. masses --     3.1774                 2.1975                 1.9020
 Frc consts  --     2.4461                 1.7122                 1.5034
 IR Inten    --    82.2487                31.0263                14.4592
 Raman Activ --     0.4850                 3.2969                 1.4122

                    73                     74                     75
                     A                      A                      A
 Frequencies --  1164.5017              1178.7558              1180.4573
 Red. masses --     2.5004                 1.5890                 1.6392
 Frc consts  --     1.9978                 1.3008                 1.3458
 IR Inten    --    41.0536                 9.2467                 7.4449
 Raman Activ --     5.0966                 1.1248                 0.5315

                    76                     77                     78
                     A                      A                      A
 Frequencies --  1193.9169              1209.0186              1226.3295
 Red. masses --     1.6785                 2.2140                 1.4478
 Frc consts  --     1.4097                 1.9067                 1.2828
 IR Inten    --     5.1851                31.3339                 2.3316
 Raman Activ --     3.0188                 3.1649                 3.2256

                    79                     80                     81
                     A                      A                      A
 Frequencies --  1236.8244              1241.6388              1247.0557
 Red. masses --     1.3112                 1.2530                 1.2694
 Frc consts  --     1.1818                 1.1381                 1.1631
 IR Inten    --     5.9574                24.1629                16.0839
 Raman Activ --     2.3560                 0.8351                 2.8314

                    82                     83                     84
                     A                      A                      A
 Frequencies --  1267.3428              1276.5066              1289.0934
 Red. masses --     1.2732                 1.2249                 1.2757
 Frc consts  --     1.2049                 1.1760                 1.2490
 IR Inten    --    12.3584                21.1212                31.4031
 Raman Activ --     2.0385                 1.9477                 2.4583

                    85                     86                     87
                     A                      A                      A
 Frequencies --  1291.8702              1308.6790              1323.0904
 Red. masses --     1.2723                 1.3703                 1.2433
 Frc consts  --     1.2510                 1.3827                 1.2824
 IR Inten    --    14.8468                22.5750                 3.3618
 Raman Activ --     0.8308                 5.5509                 1.9829

                    88                     89                     90
                     A                      A                      A
 Frequencies --  1331.5264              1339.7383              1340.9429
 Red. masses --     1.3017                 1.2839                 1.2842
 Frc consts  --     1.3598                 1.3577                 1.3605
 IR Inten    --     8.8578                 9.7148                 9.2075
 Raman Activ --     4.3183                 4.7928                 6.1555

                    91                     92                     93
                     A                      A                      A
 Frequencies --  1345.8637              1352.8029              1361.1709
 Red. masses --     1.3536                 1.2297                 1.4016
 Frc consts  --     1.4446                 1.3259                 1.5300
 IR Inten    --     5.4115                15.1697                23.2552
 Raman Activ --     5.6763                 4.1784                 4.5251

                    94                     95                     96
                     A                      A                      A
 Frequencies --  1368.7777              1371.7440              1378.9905
 Red. masses --     1.1894                 1.4079                 1.2556
 Frc consts  --     1.3129                 1.5608                 1.4067
 IR Inten    --    16.7469                11.5576                86.4137
 Raman Activ --     1.8019                 3.8146                 2.3981

                    97                     98                     99
                     A                      A                      A
 Frequencies --  1379.6260              1391.0393              1402.0646
 Red. masses --     1.2301                 1.4610                 1.4447
 Frc consts  --     1.3795                 1.6656                 1.6732
 IR Inten    --    24.4323                19.6329                10.7665
 Raman Activ --     3.7162                 5.6422                 6.9210

                   100                    101                    102
                     A                      A                      A
 Frequencies --  1404.7190              1446.4570              1450.5521
 Red. masses --     1.2964                 1.0830                 1.3769
 Frc consts  --     1.5072                 1.3350                 1.7069
 IR Inten    --     6.8959                 3.6428                22.8966
 Raman Activ --     2.3042                 6.1035                 1.6160

                   103                    104                    105
                     A                      A                      A
 Frequencies --  1466.0661              1475.8365              1499.4647
 Red. masses --     1.0585                 1.1094                 1.3479
 Frc consts  --     1.3404                 1.4237                 1.7855
 IR Inten    --     6.7653                 5.6947                37.4844
 Raman Activ --     8.4788                 0.7835                 2.0377

                   106                    107                    108
                     A                      A                      A
 Frequencies --  1505.3151              1506.0829              3238.9542
 Red. masses --     1.3419                 1.3749                 1.0763
 Frc consts  --     1.7915                 1.8374                 6.6528
 IR Inten    --    97.4712                32.4260                13.2643
 Raman Activ --     2.6771                 0.7303                94.5590

                   109                    110                    111
                     A                      A                      A
 Frequencies --  3251.2619              3255.9890              3265.9474
 Red. masses --     1.0662                 1.0811                 1.0817
 Frc consts  --     6.6404                 6.7527                 6.7978
 IR Inten    --    45.9005                21.3138                 8.3920
 Raman Activ --    37.2397                62.5660                96.1730

                   112                    113                    114
                     A                      A                      A
 Frequencies --  3269.4042              3274.0888              3276.1145
 Red. masses --     1.0807                 1.0813                 1.0595
 Frc consts  --     6.8060                 6.8294                 6.6999
 IR Inten    --     7.9727                 4.2234                27.7125
 Raman Activ --   114.8065               115.3404                60.4447

                   115                    116                    117
                     A                      A                      A
 Frequencies --  3283.4635              3288.3402              3294.9532
 Red. masses --     1.0849                 1.0850                 1.0866
 Frc consts  --     6.8913                 6.9126                 6.9503
 IR Inten    --     5.3271                10.3755                85.2048
 Raman Activ --    35.7794                41.0931                 4.4221

                   118                    119                    120
                     A                      A                      A
 Frequencies --  3297.9160              3302.8841              3310.0732
 Red. masses --     1.1004                 1.0865                 1.0884
 Frc consts  --     7.0514                 6.9836                 7.0264
 IR Inten    --    12.6287                21.9466                45.2518
 Raman Activ --    43.6465                48.4596                39.5942

                   121                    122                    123
                     A                      A                      A
 Frequencies --  3338.5943              3352.8245              3358.4617
 Red. masses --     1.1048                 1.0666                 1.0648
 Frc consts  --     7.2553                 7.0645                 7.0762
 IR Inten    --    24.2135               187.9827                 9.6672
 Raman Activ --    53.0752               151.7009               105.4626

                   124                    125                    126
                     A                      A                      A
 Frequencies --  3365.7087              3366.1487              3371.1943
 Red. masses --     1.0645                 1.0664                 1.0711
 Frc consts  --     7.1044                 7.1192                 7.1721
 IR Inten    --    35.3632                61.1296                24.2973
 Raman Activ --    36.3006               142.0948                76.2833

                   127                    128                    129
                     A                      A                      A
 Frequencies --  3375.8278              3885.2942              3891.1873
 Red. masses --     1.0681                 1.0675                 1.0671
 Frc consts  --     7.1718                 9.4945                 9.5200
 IR Inten    --    83.9330                53.4088                71.6646
 Raman Activ --   129.1405               121.5932               131.1050

 - Thermochemistry -
 -------------------
 Temperature   298.150 Kelvin.  Pressure   1.00000 Atm.
 Atom     1 has atomic number  8 and mass  15.99491

 Molecular mass:   342.11621 amu.
 Principal axes and moments of inertia in atomic units:
                           1         2         3
     Eigenvalues --  4728.61103********************
           X            0.99997   0.00704   0.00195
           Y           -0.00704   0.99997   0.00117
           Z           -0.00194  -0.00119   1.00000
 This molecule is an asymmetric top.
 Rotational symmetry number  1.
 Warning -- assumption of classical behavior for rotation
           may cause significant error
 Rotational temperatures (Kelvin)      0.01832     0.00706     0.00527
 Rotational constants (GHZ):           0.38166     0.14714     0.10980
    8 imaginary frequencies ignored.
 Zero-point vibrational energy     971539.2 (Joules/Mol)
                                  232.20343 (Kcal/Mol)
 Warning -- explicit consideration of  31 degrees of freedom as
           vibrations may cause significant error
 Vibrational temperatures:     50.26    92.56   142.58   166.73   170.89
          (Kelvin)            180.64   230.87   265.75   290.65   358.93
                              382.55   409.50   416.73   439.35   450.89
                              473.39   482.66   498.52   537.51   588.44
                              594.33   636.77   641.24   682.31   719.64
                              752.18   778.17   788.95   844.73   858.36
                              878.26   902.70   919.39   942.44   972.28
                             1017.11  1032.85  1105.33  1157.92  1170.06
                             1215.84  1330.40  1348.55  1392.38  1395.34
                             1425.53  1436.03  1448.38  1475.02  1482.06
                             1492.08  1506.40  1514.96  1525.03  1531.02
                             1556.33  1575.23  1600.67  1604.93  1614.47
                             1622.75  1644.65  1654.57  1666.45  1675.46
                             1695.96  1698.41  1717.78  1739.51  1764.41
                             1779.51  1786.44  1794.23  1823.42  1836.61
                             1854.72  1858.71  1882.89  1903.63  1915.77
                             1927.58  1929.32  1936.40  1946.38  1958.42
                             1969.36  1973.63  1984.06  1984.97  2001.39
                             2017.26  2021.07  2081.13  2087.02  2109.34
                             2123.40  2157.39  2165.81  2166.91  4660.13
                             4677.83  4684.64  4698.96  4703.94  4710.68
                             4713.59  4724.17  4731.18  4740.70  4744.96
                             4752.11  4762.45  4803.49  4823.96  4832.07
                             4842.50  4843.13  4850.39  4857.06  5590.06
                             5598.54

 Zero-point correction=                           0.370040 (Hartree/Particle)
 Thermal correction to Energy=                    0.388066
 Thermal correction to Enthalpy=                  0.389010
 Thermal correction to Gibbs Free Energy=         0.324640
 Sum of electronic and zero-point Energies=          -1297.576285
 Sum of electronic and thermal Energies=             -1297.558259
 Sum of electronic and thermal Enthalpies=           -1297.557314
 Sum of electronic and thermal Free Energies=        -1297.621685

                     E (Thermal)             CV                S
                      KCal/Mol        Cal/Mol-Kelvin    Cal/Mol-Kelvin
 Total                  243.515             74.853            135.478
 Electronic               0.000              0.000              0.000
 Translational            0.889              2.981             43.384
 Rotational               0.889              2.981             35.210
 Vibrational            241.737             68.891             56.884
 Vibration     1          0.594              1.983              5.528
 Vibration     2          0.597              1.971              4.320
 Vibration     3          0.604              1.950              3.472
 Vibration     4          0.608              1.936              3.168
 Vibration     5          0.609              1.934              3.120
 Vibration     6          0.611              1.928              3.013
 Vibration     7          0.622              1.891              2.544
 Vibration     8          0.631              1.861              2.280
 Vibration     9          0.639              1.837              2.115
 Vibration    10          0.662              1.764              1.734
 Vibration    11          0.672              1.736              1.623
 Vibration    12          0.683              1.702              1.506
 Vibration    13          0.686              1.693              1.476
 Vibration    14          0.696              1.664              1.387
 Vibration    15          0.701              1.648              1.344
 Vibration    16          0.712              1.618              1.265
 Vibration    17          0.717              1.605              1.234
 Vibration    18          0.724              1.582              1.182
 Vibration    19          0.745              1.526              1.065
 Vibration    20          0.773              1.451              0.930
 Vibration    21          0.777              1.442              0.916
 Vibration    22          0.802              1.377              0.819
 Vibration    23          0.805              1.370              0.809
 Vibration    24          0.831              1.307              0.726
 Vibration    25          0.856              1.250              0.658
 Vibration    26          0.878              1.200              0.604
 Vibration    27          0.896              1.160              0.563
 Vibration    28          0.904              1.143              0.548
 Vibration    29          0.944              1.059              0.472
 Vibration    30          0.954              1.039              0.456
 Vibration    31          0.969              1.010              0.432

 Normal termination of Gaussian 09 at Sat Apr  2 23:32:52 2016.
