 Gaussian 09, Revision B.01,
 Gaussian 09:  EM64L-G09RevB.01 12-Aug-2010

 ------------------------------------------------
 # freq=raman b3lyp/6-31+g(d,p) geom=connectivity
 ------------------------------------------------

 -----------------------------
 450K 9000ps Cellobiose Unit 1
 -----------------------------
 Symbolic Z-matrix:
 Charge =  0 Multiplicity = 1

                         Standard orientation:
 ---------------------------------------------------------------------
 Center     Atomic      Atomic             Coordinates (Angstroms)
 Number     Number       Type             X           Y           Z
 ---------------------------------------------------------------------
      1          8           0        4.961917   -0.469387   -0.702402
      2          6           0        3.810592   -0.128748    0.082902
      3          6           0        3.389094    1.254936   -0.383378
      4          8           0        4.324594    2.250496    0.054776
      5          1           0        5.262762    1.914651    0.133938
      6          6           0        2.000375    1.638475    0.103477
      7          8           0        1.400848    2.778401   -0.527929
      8          1           0        2.122478    3.467853   -0.460312
      9          6           0        3.228361   -2.560517    0.350850
     10          8           0        2.261604   -3.606464    0.528708
     11          1           0        2.702450   -4.370419    1.000255
     12          6           0        2.748247   -1.197400   -0.119810
     13          8           0        1.543227   -0.715246    0.491733
     14          6           0        0.991900    0.508287   -0.017282
     15          8           0       -0.211545    0.821830    0.699157
     16          6           0       -1.375550    0.378843   -0.013095
     17          6           0       -1.749087   -1.081170    0.186670
     18          8           0       -0.759706   -1.869500   -0.491321
     19          1           0        0.056760   -1.514235   -0.036695
     20          6           0       -3.056596   -1.408254   -0.516042
     21          8           0       -3.303805   -2.821571   -0.551688
     22          1           0       -2.758376   -3.189118   -1.305589
     23          6           0       -2.218370    2.551652    0.565323
     24          8           0       -2.845945    3.442909   -0.368014
     25          1           0       -2.322567    4.277306   -0.541776
     26          6           0       -2.556625    1.072399    0.646746
     27          8           0       -3.854268    0.728907    0.138349
     28          6           0       -4.141716   -0.672386    0.253222
     29          8           0       -5.427817   -0.845363   -0.358244
     30          1           0        5.758567   -0.235109   -0.220672
     31          1           0       -6.109453   -0.514017    0.230978
     32          1           0        3.726941   -2.420470    1.287175
     33          1           0        3.952504   -2.908355   -0.355922
     34          1           0        2.564487   -1.271752   -1.171288
     35          1           0        4.083352   -0.088815    1.116781
     36          1           0        3.378450    1.255800   -1.453325
     37          1           0        2.090546    1.869278    1.144390
     38          1           0        0.750733    0.372491   -1.050867
     39          1           0       -1.315606    0.626524   -1.052306
     40          1           0       -1.795221   -1.331063    1.226057
     41          1           0       -3.020336   -1.033184   -1.517495
     42          1           0       -4.159819   -0.976418    1.278959
     43          1           0       -2.545235    0.800820    1.681644
     44          1           0       -1.165629    2.613445    0.384167
     45          1           0       -2.394363    2.958001    1.539390
 ---------------------------------------------------------------------

 SCF Done:  E(RB3LYP) =  -1297.92036878     A.U. after   14 cycles

 The electronic state is 1-A.
 Alpha  occ. eigenvalues --  -19.20414 -19.20331 -19.19974 -19.19913 -19.18784
 Alpha  occ. eigenvalues --  -19.17612 -19.16499 -19.15805 -19.15090 -19.14509
 Alpha  occ. eigenvalues --  -19.13911 -10.32157 -10.28892 -10.28262 -10.28064
 Alpha  occ. eigenvalues --  -10.27382 -10.26613 -10.25968 -10.24561 -10.24376
 Alpha  occ. eigenvalues --  -10.23588 -10.23182 -10.21692  -1.10886  -1.08302
 Alpha  occ. eigenvalues --   -1.06805  -1.05932  -1.05226  -1.04095  -1.03207
 Alpha  occ. eigenvalues --   -1.02113  -1.00648  -0.99783  -0.99451  -0.83110
 Alpha  occ. eigenvalues --   -0.82128  -0.79254  -0.77429  -0.72694  -0.69253
 Alpha  occ. eigenvalues --   -0.68251  -0.65196  -0.64022  -0.62605  -0.60439
 Alpha  occ. eigenvalues --   -0.60093  -0.57673  -0.56761  -0.55668  -0.54317
 Alpha  occ. eigenvalues --   -0.53747  -0.53090  -0.53004  -0.51922  -0.50789
 Alpha  occ. eigenvalues --   -0.50155  -0.49838  -0.49303  -0.48039  -0.47087
 Alpha  occ. eigenvalues --   -0.46136  -0.45527  -0.44854  -0.44091  -0.43963
 Alpha  occ. eigenvalues --   -0.42679  -0.41585  -0.41170  -0.40078  -0.39416
 Alpha  occ. eigenvalues --   -0.38773  -0.38478  -0.37676  -0.37271  -0.35786
 Alpha  occ. eigenvalues --   -0.35614  -0.35404  -0.33728  -0.33515  -0.32915
 Alpha  occ. eigenvalues --   -0.32823  -0.31969  -0.30779  -0.30348  -0.30092
 Alpha  occ. eigenvalues --   -0.29417  -0.29015  -0.28240  -0.26820  -0.26544
 Alpha  occ. eigenvalues --   -0.24531
 Alpha virt. eigenvalues --   -0.04916  -0.02241  -0.00884  -0.00007   0.00620
 Alpha virt. eigenvalues --    0.01033   0.01379   0.02191   0.02488   0.02862
 Alpha virt. eigenvalues --    0.03697   0.04684   0.04763   0.05014   0.05353

 Mulliken atomic charges:
              1
     1  O   -0.521560
     2  C   -0.317081
     3  C    0.135388
     4  O   -0.531771
     5  H    0.337376
     6  C    0.221484
     7  O   -0.501194
     8  H    0.369156
     9  C   -0.217437
    10  O   -0.518371
    11  H    0.354138
    12  C    0.336611
    13  O   -0.397358
    14  C    0.126511
    15  O   -0.266368
    16  C   -0.080007
    17  C    0.006795
    18  O   -0.539657
    19  H    0.412226
    20  C   -0.272109
    21  O   -0.455890
    22  H    0.363019
    23  C   -0.380513
    24  O   -0.525297
    25  H    0.353496
    26  C    0.181462
    27  O   -0.323828
    28  C    0.455023
    29  O   -0.498749
    30  H    0.352583
    31  H    0.348019
    32  H    0.116623
    33  H    0.162038
    34  H    0.144796
    35  H    0.149743
    36  H    0.160005
    37  H    0.152620
    38  H    0.132456
    39  H    0.158296
    40  H    0.145312
    41  H    0.148831
    42  H    0.118268
    43  H    0.133192
    44  H    0.152376
    45  H    0.119345
 Sum of Mulliken atomic charges =   0.00000

 Dipole moment (field-independent basis, Debye):
    X=              9.9381    Y=              0.8218    Z=              2.9588  Tot=             10.4017
 Quadrupole moment (field-independent basis, Debye-Ang):
   XX=           -119.9829   YY=           -138.9844   ZZ=           -135.9951
   XY=             -5.8063   XZ=             -3.0166   YZ=             -1.9588

  Exact polarizability: 220.063   3.326 194.460  -0.041   0.301 143.107
 Approx polarizability: 259.581   3.269 249.104   1.646   0.549 231.210

 ******    7 imaginary frequencies (negative Signs) ******

                     1                      2                      3
                     A                      A                      A
 Frequencies --  -347.2852              -292.2583              -286.2165
 Red. masses --     1.8450                 1.2374                 1.6866
 Frc consts  --     0.1311                 0.0623                 0.0814
 IR Inten    --     4.2557                86.5582                11.5642
 Raman Activ --     0.3994                 0.8701                 0.2658

                     4                      5                      6
                     A                      A                      A
 Frequencies --  -274.1963               -85.5986               -58.9182
 Red. masses --     1.0621                 6.2755                 6.3932
 Frc consts  --     0.0470                 0.0271                 0.0131
 IR Inten    --   132.1215                 1.5548                 0.8113
 Raman Activ --     1.6403                 0.0130                 0.0867

                     7                      8                      9
                     A                      A                      A
 Frequencies --   -45.3529                34.9922                52.7425
 Red. masses --     6.2840                 6.6440                 6.3992
 Frc consts  --     0.0076                 0.0048                 0.0105
 IR Inten    --     1.6770                 1.0549                 1.5639
 Raman Activ --     0.0430                 0.0205                 0.1392

                    10                     11                     12
                     A                      A                      A
 Frequencies --    57.1811                98.1975               123.0681
 Red. masses --     7.0798                 6.9122                 6.2693
 Frc consts  --     0.0136                 0.0393                 0.0559
 IR Inten    --     0.3837                 1.8455                 0.5539
 Raman Activ --     0.0625                 0.1451                 0.2305

                    13                     14                     15
                     A                      A                      A
 Frequencies --   126.1054               169.1639               187.0247
 Red. masses --     6.1617                 6.5382                 5.6481
 Frc consts  --     0.0577                 0.1102                 0.1164
 IR Inten    --     2.0972                 2.0843                 4.5112
 Raman Activ --     0.6678                 0.8120                 0.3705

                    16                     17                     18
                     A                      A                      A
 Frequencies --   203.4407               217.0115               245.5797
 Red. masses --     6.1169                 6.8135                 5.4274
 Frc consts  --     0.1492                 0.1891                 0.1929
 IR Inten    --     0.9190                 1.9346                15.6570
 Raman Activ --     0.9541                 1.6613                 0.5723

                    19                     20                     21
                     A                      A                      A
 Frequencies --   268.5806               284.6814               290.1155
 Red. masses --     5.9481                 5.6557                 4.3589
 Frc consts  --     0.2528                 0.2701                 0.2162
 IR Inten    --     5.1708                 0.8891                 8.5911
 Raman Activ --     0.1111                 0.1019                 1.3335

                    22                     23                     24
                     A                      A                      A
 Frequencies --   309.5484               318.9956               329.1564
 Red. masses --     5.6551                 5.3777                 4.8489
 Frc consts  --     0.3193                 0.3224                 0.3095
 IR Inten    --     4.2617                 6.0509                 2.6269
 Raman Activ --     0.9373                 3.3837                 1.2830

                    25                     26                     27
                     A                      A                      A
 Frequencies --   345.8624               384.5994               401.4863
 Red. masses --     5.3173                 4.8729                 6.1406
 Frc consts  --     0.3748                 0.4247                 0.5832
 IR Inten    --    11.1830                 2.0875                 1.7904
 Raman Activ --     2.1555                 0.6637                 3.5208

                    28                     29                     30
                     A                      A                      A
 Frequencies --   418.0906               434.2329               438.1846
 Red. masses --     5.5197                 6.0828                 6.2163
 Frc consts  --     0.5685                 0.6758                 0.7032
 IR Inten    --    24.1053                 5.6747                 4.1881
 Raman Activ --     1.9100                 2.1295                 0.8350

                    31                     32                     33
                     A                      A                      A
 Frequencies --   469.3080               483.8341               523.9956
 Red. masses --     4.4626                 4.5718                 6.3019
 Frc consts  --     0.5791                 0.6306                 1.0195
 IR Inten    --    10.0791                 0.5458                21.9845
 Raman Activ --     0.6496                 3.9317                 4.3192

                    34                     35                     36
                     A                      A                      A
 Frequencies --   525.6541               556.5387               570.5120
 Red. masses --     3.2073                 3.2458                 4.1588
 Frc consts  --     0.5221                 0.5923                 0.7975
 IR Inten    --    23.8228                24.8481                23.4965
 Raman Activ --     4.1833                 2.8951                 2.3913

                    37                     38                     39
                     A                      A                      A
 Frequencies --   584.9341               591.2008               609.7125
 Red. masses --     2.7146                 1.4823                 2.8161
 Frc consts  --     0.5472                 0.3053                 0.6168
 IR Inten    --    12.8795                64.7085                18.6686
 Raman Activ --     0.8321                 2.5929                 0.5872

                    40                     41                     42
                     A                      A                      A
 Frequencies --   623.7645               628.2856               649.6592
 Red. masses --     1.1705                 2.6173                 4.4806
 Frc consts  --     0.2683                 0.6087                 1.1142
 IR Inten    --   108.5485                55.5054                19.4135
 Raman Activ --     1.1334                 0.7062                 0.3622

                    43                     44                     45
                     A                      A                      A
 Frequencies --   664.9054               677.9253               702.4073
 Red. masses --     1.0803                 1.1598                 3.7246
 Frc consts  --     0.2814                 0.3141                 1.0827
 IR Inten    --   115.7280               113.6452                17.0187
 Raman Activ --     2.1697                 1.4284                 0.7008

                    46                     47                     48
                     A                      A                      A
 Frequencies --   741.6992               842.2871               890.4052
 Red. masses --     1.0975                 2.5466                 2.7650
 Frc consts  --     0.3557                 1.0645                 1.2916
 IR Inten    --   109.2917                10.7459                29.9180
 Raman Activ --     1.6088                 4.1088                 3.5340

                    49                     50                     51
                     A                      A                      A
 Frequencies --   915.6674               928.4170               958.2314
 Red. masses --     2.2448                 1.1315                 5.7481
 Frc consts  --     1.1089                 0.5746                 3.1097
 IR Inten    --     7.0180                55.8399               109.8164
 Raman Activ --     2.4024                 0.7460                 1.3969

                    52                     53                     54
                     A                      A                      A
 Frequencies --   976.3100               978.1774               998.9795
 Red. masses --     5.3119                 4.4873                 6.2937
 Frc consts  --     2.9831                 2.5297                 3.7006
 IR Inten    --   301.6455                26.3265                87.2613
 Raman Activ --     2.7006                 1.5017                 2.9052

                    55                     56                     57
                     A                      A                      A
 Frequencies --  1017.3996              1023.0170              1025.3602
 Red. masses --     3.7340                 5.9787                 3.4578
 Frc consts  --     2.2772                 3.6866                 2.1419
 IR Inten    --    16.9201                38.8937               350.9730
 Raman Activ --     1.9812                 1.4313                 2.0449

                    58                     59                     60
                     A                      A                      A
 Frequencies --  1032.9955              1042.0473              1072.6878
 Red. masses --     2.4582                 2.3922                 4.7339
 Frc consts  --     1.5455                 1.5304                 3.2093
 IR Inten    --   205.5436               189.9039                 2.9579
 Raman Activ --     0.5417                 4.9868                14.2436

                    61                     62                     63
                     A                      A                      A
 Frequencies --  1076.2766              1084.0579              1087.3093
 Red. masses --     3.0457                 5.9759                 4.7339
 Frc consts  --     2.0787                 4.1377                 3.2974
 IR Inten    --   144.4347                92.6470                30.3785
 Raman Activ --     3.1353                 0.6455                 2.5608

                    64                     65                     66
                     A                      A                      A
 Frequencies --  1092.9606              1098.0670              1110.0955
 Red. masses --     3.1835                 3.9782                 3.6238
 Frc consts  --     2.2406                 2.8261                 2.6311
 IR Inten    --    24.3575                73.3524                10.8045
 Raman Activ --     9.5237                11.0281                 9.0063

                    67                     68                     69
                     A                      A                      A
 Frequencies --  1127.3596              1132.4581              1136.9918
 Red. masses --     2.2818                 2.1612                 3.0839
 Frc consts  --     1.7086                 1.6330                 2.3489
 IR Inten    --    16.1631                 2.3843                35.6122
 Raman Activ --     7.3199                 2.4166                 2.0131

                    70                     71                     72
                     A                      A                      A
 Frequencies --  1150.2659              1154.7365              1161.3440
 Red. masses --     2.2855                 2.0973                 2.7015
 Frc consts  --     1.7817                 1.6477                 2.1467
 IR Inten    --    58.4246                32.4840                16.9184
 Raman Activ --     4.0996                 1.4226                 1.3096

                    73                     74                     75
                     A                      A                      A
 Frequencies --  1168.7758              1184.2613              1190.8406
 Red. masses --     2.2159                 1.4979                 1.6052
 Frc consts  --     1.7834                 1.2378                 1.3412
 IR Inten    --    10.6125                33.4009                20.3418
 Raman Activ --     3.0787                 1.1892                 2.7367

                    76                     77                     78
                     A                      A                      A
 Frequencies --  1206.0664              1208.7474              1229.4204
 Red. masses --     2.4396                 1.4262                 1.2521
 Frc consts  --     2.0908                 1.2277                 1.1150
 IR Inten    --    73.2930                 6.8332                 7.0688
 Raman Activ --     1.0148                 2.2245                 0.7934

                    79                     80                     81
                     A                      A                      A
 Frequencies --  1242.5136              1250.6198              1265.8571
 Red. masses --     1.3087                 1.2417                 1.2199
 Frc consts  --     1.1904                 1.1442                 1.1517
 IR Inten    --     6.5069                22.9972                12.4541
 Raman Activ --     1.4929                 3.7663                 3.1248

                    82                     83                     84
                     A                      A                      A
 Frequencies --  1269.6977              1279.6345              1291.1207
 Red. masses --     1.3659                 1.1324                 1.2058
 Frc consts  --     1.2974                 1.0925                 1.1843
 IR Inten    --    12.6031                 1.8432                 6.3140
 Raman Activ --     1.7156                 4.6033                 0.8698

                    85                     86                     87
                     A                      A                      A
 Frequencies --  1299.1481              1302.0502              1311.5788
 Red. masses --     1.1608                 1.2072                 1.2529
 Frc consts  --     1.1543                 1.2058                 1.2698
 IR Inten    --    22.7657                22.1115                16.4953
 Raman Activ --     9.0437                 1.6468                 2.1123

                    88                     89                     90
                     A                      A                      A
 Frequencies --  1322.1493              1323.9274              1336.5154
 Red. masses --     1.2446                 1.3039                 1.2299
 Frc consts  --     1.2818                 1.3466                 1.2944
 IR Inten    --    12.6533                10.0097                38.8563
 Raman Activ --     6.4867                 7.3219                 1.7414

                    91                     92                     93
                     A                      A                      A
 Frequencies --  1342.4978              1348.8323              1358.1464
 Red. masses --     1.2865                 1.2536                 1.2993
 Frc consts  --     1.3662                 1.3438                 1.4121
 IR Inten    --     3.4571                40.2857                63.8099
 Raman Activ --     9.8232                 0.3684                 4.6898

                    94                     95                     96
                     A                      A                      A
 Frequencies --  1365.6861              1370.8413              1373.7622
 Red. masses --     1.5392                 1.2595                 1.2932
 Frc consts  --     1.6914                 1.3945                 1.4379
 IR Inten    --    24.1842                 7.1032                 4.8662
 Raman Activ --     4.6227                 7.7525                 2.2516

                    97                     98                     99
                     A                      A                      A
 Frequencies --  1382.7463              1383.0641              1398.9273
 Red. masses --     1.6464                 1.4963                 1.5662
 Frc consts  --     1.8547                 1.6863                 1.8059
 IR Inten    --     2.3352                 9.8089                25.3088
 Raman Activ --     3.4280                 4.9084                 2.6357

                   100                    101                    102
                     A                      A                      A
 Frequencies --  1402.5318              1457.9593              1463.0120
 Red. masses --     1.4098                 1.3575                 1.5108
 Frc consts  --     1.6339                 1.7001                 1.9053
 IR Inten    --    13.4566                 5.0649                28.0195
 Raman Activ --     5.0042                 2.6138                 3.8728

                   103                    104                    105
                     A                      A                      A
 Frequencies --  1472.1153              1476.0405              1477.8426
 Red. masses --     1.2071                 1.1109                 1.4789
 Frc consts  --     1.5413                 1.4261                 1.9031
 IR Inten    --     9.9382                 1.2037                54.5902
 Raman Activ --     2.1084                 4.5438                 2.0821

                   106                    107                    108
                     A                      A                      A
 Frequencies --  1528.5089              1552.3073              3255.7788
 Red. masses --     1.1261                 1.2105                 1.0670
 Frc consts  --     1.5502                 1.7186                 6.6638
 IR Inten    --     5.9190                53.8771                36.7889
 Raman Activ --     3.0832                 0.3441                77.7152

                   109                    110                    111
                     A                      A                      A
 Frequencies --  3266.3544              3283.0898              3286.3991
 Red. masses --     1.0596                 1.0805                 1.0822
 Frc consts  --     6.6607                 6.8617                 6.8863
 IR Inten    --    50.9067                33.3087                31.1216
 Raman Activ --    90.1522                57.2900                38.2408

                   112                    113                    114
                     A                      A                      A
 Frequencies --  3290.6827              3293.2713              3295.9397
 Red. masses --     1.0827                 1.0847                 1.0840
 Frc consts  --     6.9079                 6.9315                 6.9378
 IR Inten    --    26.1582                19.8391                26.5303
 Raman Activ --    62.1919                26.1473               119.8021

                   115                    116                    117
                     A                      A                      A
 Frequencies --  3300.1910              3302.4673              3309.9339
 Red. masses --     1.0832                 1.0860                 1.0865
 Frc consts  --     6.9505                 6.9782                 7.0130
 IR Inten    --    71.9066                 3.1522                15.6114
 Raman Activ --   181.1888                64.7767                18.9903

                   118                    119                    120
                     A                      A                      A
 Frequencies --  3310.6929              3314.2965              3319.3646
 Red. masses --     1.0766                 1.0845                 1.0961
 Frc consts  --     6.9525                 7.0191                 7.1153
 IR Inten    --   258.8546               154.9147                29.6654
 Raman Activ --    86.3925                30.8238                31.7854

                   121                    122                    123
                     A                      A                      A
 Frequencies --  3323.1276              3325.7532              3384.8780
 Red. masses --     1.0911                 1.1006                 1.0688
 Frc consts  --     7.0990                 7.1725                 7.2148
 IR Inten    --    83.8446               111.6882                41.1743
 Raman Activ --    46.4679                66.1289               131.8663

                   124                    125                    126
                     A                      A                      A
 Frequencies --  3390.2591              3392.4276              3394.0717
 Red. masses --     1.0674                 1.0663                 1.0662
 Frc consts  --     7.2284                 7.2299                 7.2368
 IR Inten    --    49.2378                20.8157                45.0443
 Raman Activ --   163.9155                42.9470               194.5179

                   127                    128                    129
                     A                      A                      A
 Frequencies --  3396.4552              3910.2007              3916.7839
 Red. masses --     1.0665                 1.0676                 1.0669
 Frc consts  --     7.2488                 9.6175                 9.6436
 IR Inten    --    45.8005                45.0474                53.8123
 Raman Activ --    83.7094               104.8965               149.3885

 - Thermochemistry -
 -------------------
 Temperature   298.150 Kelvin.  Pressure   1.00000 Atm.
 Atom     1 has atomic number  8 and mass  15.99491

 Molecular mass:   342.11621 amu.
 Principal axes and moments of inertia in atomic units:
                           1         2         3
     Eigenvalues --  4664.49457********************
           X            0.99998  -0.00645  -0.00116
           Y            0.00645   0.99998   0.00026
           Z            0.00116  -0.00027   1.00000
 This molecule is an asymmetric top.
 Rotational symmetry number  1.
 Warning -- assumption of classical behavior for rotation
           may cause significant error
 Rotational temperatures (Kelvin)      0.01857     0.00737     0.00547
 Rotational constants (GHZ):           0.38691     0.15354     0.11404
    7 imaginary frequencies ignored.
 Zero-point vibrational energy     978284.8 (Joules/Mol)
                                  233.81568 (Kcal/Mol)
 Warning -- explicit consideration of  32 degrees of freedom as
           vibrations may cause significant error
 Vibrational temperatures:     50.35    75.88    82.27   141.28   177.07
          (Kelvin)            181.44   243.39   269.09   292.71   312.23
                              353.33   386.43   409.59   417.41   445.37
                              458.96   473.58   497.62   553.35   577.65
                              601.54   624.76   630.45   675.23   696.13
                              753.91   756.30   800.73   820.84   841.59
                              850.60   877.24   897.46   903.96   934.71
                              956.65   975.38  1010.61  1067.14  1211.86
                             1281.09  1317.44  1335.78  1378.68  1404.69
                             1407.38  1437.31  1463.81  1471.89  1475.26
                             1486.25  1499.27  1543.36  1548.52  1559.72
                             1564.39  1572.52  1579.87  1597.18  1622.02
                             1629.35  1635.88  1654.97  1661.41  1670.91
                             1681.61  1703.89  1713.35  1735.26  1739.12
                             1768.86  1787.70  1799.36  1821.28  1826.81
                             1841.11  1857.63  1869.18  1873.36  1887.07
                             1902.28  1904.83  1922.95  1931.55  1940.67
                             1954.07  1964.92  1972.33  1976.53  1989.46
                             1989.92  2012.74  2017.93  2097.68  2104.95
                             2118.04  2123.69  2126.28  2199.18  2233.42
                             4684.33  4699.55  4723.63  4728.39  4734.55
                             4738.28  4742.12  4748.23  4751.51  4762.25
                             4763.34  4768.53  4775.82  4781.23  4785.01
                             4870.08  4877.82  4880.94  4883.31  4886.74
                             5625.90  5635.37

 Zero-point correction=                           0.372609 (Hartree/Particle)
 Thermal correction to Energy=                    0.391064
 Thermal correction to Enthalpy=                  0.392008
 Thermal correction to Gibbs Free Energy=         0.326351
 Sum of electronic and zero-point Energies=          -1297.547760
 Sum of electronic and thermal Energies=             -1297.529305
 Sum of electronic and thermal Enthalpies=           -1297.528361
 Sum of electronic and thermal Free Energies=        -1297.594018

                     E (Thermal)             CV                S
                      KCal/Mol        Cal/Mol-Kelvin    Cal/Mol-Kelvin
 Total                  245.396             75.901            138.187
 Electronic               0.000              0.000              0.000
 Translational            0.889              2.981             43.384
 Rotational               0.889              2.981             35.116
 Vibrational            243.619             69.939             59.686
 Vibration     1          0.594              1.982              5.524
 Vibration     2          0.596              1.977              4.712
 Vibration     3          0.596              1.975              4.552
 Vibration     4          0.604              1.950              3.490
 Vibration     5          0.610              1.930              3.052
 Vibration     6          0.611              1.927              3.005
 Vibration     7          0.625              1.880              2.445
 Vibration     8          0.632              1.858              2.257
 Vibration     9          0.639              1.835              2.102
 Vibration    10          0.646              1.815              1.984
 Vibration    11          0.660              1.770              1.762
 Vibration    12          0.673              1.731              1.605
 Vibration    13          0.683              1.702              1.505
 Vibration    14          0.686              1.692              1.473
 Vibration    15          0.699              1.656              1.365
 Vibration    16          0.705              1.637              1.315
 Vibration    17          0.712              1.617              1.264
 Vibration    18          0.724              1.584              1.185
 Vibration    19          0.754              1.503              1.021
 Vibration    20          0.767              1.467              0.957
 Vibration    21          0.781              1.431              0.898
 Vibration    22          0.795              1.396              0.845
 Vibration    23          0.798              1.387              0.832
 Vibration    24          0.826              1.318              0.739
 Vibration    25          0.840              1.286              0.700
 Vibration    26          0.879              1.197              0.601
 Vibration    27          0.881              1.193              0.597
 Vibration    28          0.912              1.125              0.531
 Vibration    29          0.927              1.095              0.503
 Vibration    30          0.942              1.064              0.476
 Vibration    31          0.949              1.051              0.465
 Vibration    32          0.969              1.011              0.433

 Normal termination of Gaussian 09 at Fri Oct 23 03:14:27 2015.
