 Gaussian 09, Revision B.01,
 Gaussian 09:  EM64L-G09RevB.01 12-Aug-2010

 -------------------------------------------------
 # freq=raman b3lyp/6-31+g(2d,p) geom=connectivity
 -------------------------------------------------

 -----------------
 473 9478/9478.com
 -----------------
 Symbolic Z-matrix:
 Charge =  0 Multiplicity = 1

                         Standard orientation:
 ---------------------------------------------------------------------
 Center     Atomic      Atomic             Coordinates (Angstroms)
 Number     Number       Type             X           Y           Z
 ---------------------------------------------------------------------
      1          8           0        4.915513   -0.398842   -0.421850
      2          6           0        3.673977   -0.123686    0.244399
      3          6           0        3.253367    1.240469   -0.276946
      4          8           0        4.296988    2.195733   -0.036238
      5          1           0        5.165701    1.702298   -0.071117
      6          6           0        1.849247    1.574580    0.199438
      7          8           0        1.431097    2.804449   -0.409458
      8          1           0        0.596388    3.146761    0.023014
      9          6           0        2.880824   -2.611421    0.296645
     10          8           0        4.056787   -3.166364   -0.310573
     11          1           0        3.985670   -4.137721   -0.083491
     12          6           0        2.645839   -1.175236   -0.139630
     13          8           0        1.447115   -0.763413    0.533412
     14          6           0        0.946746    0.400014   -0.140634
     15          8           0       -0.335128    0.581406    0.479744
     16          6           0       -1.547320    0.184275   -0.176634
     17          6           0       -1.900215   -1.226507    0.266912
     18          8           0       -0.961081   -2.258016   -0.066429
     19          1           0       -0.108698   -1.743149    0.020160
     20          6           0       -3.294632   -1.506875   -0.268940
     21          8           0       -3.773603   -2.647479    0.458314
     22          1           0       -4.670581   -2.959774    0.144743
     23          6           0       -2.352421    2.666000   -0.104086
     24          8           0       -1.279425    3.371073    0.537391
     25          1           0       -1.346705    4.360781    0.418376
     26          6           0       -2.568024    1.212032    0.283460
     27          8           0       -3.821362    0.867470   -0.325226
     28          6           0       -4.323602   -0.428789    0.032700
     29          8           0       -5.533256   -0.615188   -0.717295
     30          1           0       -6.271458   -0.721152   -0.112787
     31          1           0       -4.551528   -0.442136    1.078057
     32          1           0       -3.262447   -1.716378   -1.317736
     33          1           0       -1.972191   -1.208423    1.334335
     34          1           0       -1.427497    0.224983   -1.239124
     35          1           0       -2.668425    1.148152    1.346823
     36          1           0       -3.259236    3.196051    0.099956
     37          1           0        2.992091   -2.638636    1.360496
     38          1           0        2.033346   -3.202885    0.019424
     39          1           0        2.487070   -1.146941   -1.197407
     40          1           0        5.601640   -0.554211    0.231365
     41          1           0        3.811901   -0.097210    1.305143
     42          1           0        3.185185    1.144769   -1.340474
     43          1           0        1.865017    1.702483    1.261649
     44          1           0        0.863386    0.246215   -1.196236
     45          1           0       -2.180489    2.700355   -1.159623
 ---------------------------------------------------------------------

 SCF Done:  E(RB3LYP) =  -1298.00148742     A.U. after   13 cycles

 The electronic state is 1-A.
 Alpha  occ. eigenvalues --  -19.18580 -19.18185 -19.18003 -19.17149 -19.16966
 Alpha  occ. eigenvalues --  -19.16704 -19.16400 -19.15665 -19.15076 -19.14719
 Alpha  occ. eigenvalues --  -19.14067 -10.30526 -10.30345 -10.26031 -10.25551
 Alpha  occ. eigenvalues --  -10.25384 -10.25145 -10.25039 -10.24571 -10.24319
 Alpha  occ. eigenvalues --  -10.24229 -10.24228 -10.23833  -1.10241  -1.08670
 Alpha  occ. eigenvalues --   -1.05483  -1.04644  -1.03967  -1.03279  -1.03079
 Alpha  occ. eigenvalues --   -1.02621  -1.01595  -1.01213  -1.00083  -0.82099
 Alpha  occ. eigenvalues --   -0.80202  -0.79143  -0.78085  -0.71760  -0.69943
 Alpha  occ. eigenvalues --   -0.67329  -0.64613  -0.63173  -0.62177  -0.61468
 Alpha  occ. eigenvalues --   -0.60564  -0.56315  -0.55766  -0.55016  -0.54048
 Alpha  occ. eigenvalues --   -0.53730  -0.53532  -0.52939  -0.51748  -0.51245
 Alpha  occ. eigenvalues --   -0.50283  -0.49582  -0.49494  -0.49114  -0.46474
 Alpha  occ. eigenvalues --   -0.45909  -0.45110  -0.44333  -0.43778  -0.43288
 Alpha  occ. eigenvalues --   -0.42470  -0.41737  -0.40628  -0.40255  -0.39121
 Alpha  occ. eigenvalues --   -0.38515  -0.37581  -0.37335  -0.37050  -0.36224
 Alpha  occ. eigenvalues --   -0.35541  -0.34695  -0.34575  -0.33912  -0.33703
 Alpha  occ. eigenvalues --   -0.33215  -0.31690  -0.30460  -0.30275  -0.29677
 Alpha  occ. eigenvalues --   -0.29133  -0.28584  -0.28481  -0.27617  -0.26870
 Alpha  occ. eigenvalues --   -0.26692
 Alpha virt. eigenvalues --   -0.01924  -0.01854  -0.01780  -0.00311   0.00392
 Alpha virt. eigenvalues --    0.01083   0.01919   0.02357   0.03012   0.03259
 Alpha virt. eigenvalues --    0.04007   0.04335   0.04978   0.05274   0.05590

 Mulliken atomic charges:
              1
     1  O   -0.548483
     2  C    0.033682
     3  C    0.218148
     4  O   -0.564347
     5  H    0.342046
     6  C   -0.098096
     7  O   -0.563945
     8  H    0.385545
     9  C   -0.176072
    10  O   -0.496419
    11  H    0.333765
    12  C   -0.056457
    13  O   -0.225399
    14  C    0.100137
    15  O   -0.252330
    16  C    0.323667
    17  C   -0.036351
    18  O   -0.559553
    19  H    0.387671
    20  C    0.281384
    21  O   -0.546956
    22  H    0.333875
    23  C   -0.230813
    24  O   -0.569716
    25  H    0.355750
    26  C    0.036019
    27  O   -0.264626
    28  C    0.058372
    29  O   -0.534707
    30  H    0.335543
    31  H    0.128824
    32  H    0.134175
    33  H    0.126676
    34  H    0.120050
    35  H    0.122475
    36  H    0.151585
    37  H    0.142363
    38  H    0.154179
    39  H    0.117579
    40  H    0.337837
    41  H    0.124588
    42  H    0.115859
    43  H    0.130607
    44  H    0.138177
    45  H    0.153691
 Sum of Mulliken atomic charges =   0.00000

 Dipole moment (field-independent basis, Debye):
    X=             -2.3299    Y=             -0.5691    Z=              2.2535  Tot=              3.2909
 Quadrupole moment (field-independent basis, Debye-Ang):
   XX=           -118.4335   YY=           -134.4812   ZZ=           -140.5910
   XY=            -15.9089   XZ=              3.3771   YZ=              0.4683

  Exact polarizability: 232.189   2.290 197.511   0.636  -0.661 143.536
 Approx polarizability: 272.953   2.200 257.226   0.327  -1.159 240.197

 ******    6 imaginary frequencies (negative Signs) ******

                     1                      2                      3
                     A                      A                      A
 Frequencies --  -252.7714              -227.1636              -183.0885
 Red. masses --     1.8058                 1.8232                 1.2226
 Frc consts  --     0.0680                 0.0554                 0.0241
 IR Inten    --     6.2089                20.0993                96.8454
 Raman Activ --     0.0621                 0.1592                 0.8339

                     4                      5                      6
                     A                      A                      A
 Frequencies --  -170.4683               -70.0177               -39.0849
 Red. masses --     1.3541                 6.6116                 5.0382
 Frc consts  --     0.0232                 0.0191                 0.0045
 IR Inten    --    84.4172                 0.5545                 8.3021
 Raman Activ --     0.7266                 0.0282                 0.0584

                     7                      8                      9
                     A                      A                      A
 Frequencies --    11.6060                39.5041                60.7486
 Red. masses --     6.5541                 5.9867                 6.0415
 Frc consts  --     0.0005                 0.0055                 0.0131
 IR Inten    --     0.4486                 1.5463                 4.1347
 Raman Activ --     0.0452                 0.0296                 0.2313

                    10                     11                     12
                     A                      A                      A
 Frequencies --    94.6741               109.8263               128.3512
 Red. masses --     6.6172                 6.3885                 5.5561
 Frc consts  --     0.0349                 0.0454                 0.0539
 IR Inten    --     1.7602                 1.5781                 3.0947
 Raman Activ --     0.0795                 0.1046                 0.0899

                    13                     14                     15
                     A                      A                      A
 Frequencies --   153.4245               171.6567               180.5165
 Red. masses --     6.7306                 5.7413                 7.6742
 Frc consts  --     0.0933                 0.0997                 0.1473
 IR Inten    --     3.9377                 1.4625                 0.1667
 Raman Activ --     0.3264                 1.1515                 0.3653

                    16                     17                     18
                     A                      A                      A
 Frequencies --   185.7063               235.4243               270.4027
 Red. masses --     5.3936                 6.2205                 4.3541
 Frc consts  --     0.1096                 0.2031                 0.1876
 IR Inten    --     1.1245                 0.9609                 6.5026
 Raman Activ --     0.3796                 0.8176                 0.4615

                    19                     20                     21
                     A                      A                      A
 Frequencies --   288.8060               294.6122               304.4016
 Red. masses --     5.2031                 5.8433                 5.1445
 Frc consts  --     0.2557                 0.2988                 0.2809
 IR Inten    --     1.3671                 4.0044                 4.1764
 Raman Activ --     0.5139                 0.2389                 1.7701

                    22                     23                     24
                     A                      A                      A
 Frequencies --   309.7758               322.9067               337.0958
 Red. masses --     4.9149                 5.9554                 6.1261
 Frc consts  --     0.2779                 0.3659                 0.4101
 IR Inten    --     7.1995                 1.2258                14.7972
 Raman Activ --     0.3190                 1.8438                 3.9315

                    25                     26                     27
                     A                      A                      A
 Frequencies --   346.4080               356.2104               382.0948
 Red. masses --     4.7911                 4.9334                 6.2583
 Frc consts  --     0.3387                 0.3688                 0.5383
 IR Inten    --     0.2148                 6.4868                 2.2801
 Raman Activ --     2.5470                 0.2558                 2.1890

                    28                     29                     30
                     A                      A                      A
 Frequencies --   416.6835               425.5556               433.1660
 Red. masses --     4.2327                 5.3166                 4.9321
 Frc consts  --     0.4330                 0.5673                 0.5452
 IR Inten    --    14.2304                 0.4564                15.6357
 Raman Activ --     2.1571                 6.8635                 2.3778

                    31                     32                     33
                     A                      A                      A
 Frequencies --   435.0561               475.4408               488.2795
 Red. masses --     5.6920                 4.3061                 3.9504
 Frc consts  --     0.6348                 0.5735                 0.5549
 IR Inten    --     1.5063                 5.0758                 7.5269
 Raman Activ --     1.7363                 4.6260                 1.2318

                    34                     35                     36
                     A                      A                      A
 Frequencies --   517.2631               529.2884               570.1016
 Red. masses --     4.0494                 3.0335                 3.3507
 Frc consts  --     0.6384                 0.5007                 0.6416
 IR Inten    --    11.9696                11.9660                 5.4511
 Raman Activ --     1.3201                 2.7348                 0.8959

                    37                     38                     39
                     A                      A                      A
 Frequencies --   583.1396               602.2653               621.7073
 Red. masses --     2.8724                 5.8146                 5.3103
 Frc consts  --     0.5755                 1.2426                 1.2093
 IR Inten    --    40.2638                 3.0867                 7.6101
 Raman Activ --     0.2822                 0.6314                 0.3910

                    40                     41                     42
                     A                      A                      A
 Frequencies --   627.8815               697.2082               701.5059
 Red. masses --     4.8902                 1.0756                 4.9629
 Frc consts  --     1.1359                 0.3081                 1.4390
 IR Inten    --    48.0910               112.7868                 8.8617
 Raman Activ --     1.5566                 1.5820                 0.4716

                    43                     44                     45
                     A                      A                      A
 Frequencies --   729.8741               735.1498               743.9071
 Red. masses --     1.0813                 1.0724                 1.0897
 Frc consts  --     0.3394                 0.3415                 0.3553
 IR Inten    --    45.4660                99.1057               113.0725
 Raman Activ --     1.3515                 1.8082                 1.6907

                    46                     47                     48
                     A                      A                      A
 Frequencies --   776.5162               804.4325               856.3750
 Red. masses --     1.1013                 1.0822                 1.7336
 Frc consts  --     0.3912                 0.4126                 0.7491
 IR Inten    --    56.6493               114.7165                 1.6739
 Raman Activ --     0.3279                 1.6481                 0.7095

                    49                     50                     51
                     A                      A                      A
 Frequencies --   863.5346               920.5297               952.6164
 Red. masses --     1.7184                 5.9325                 5.2083
 Frc consts  --     0.7550                 2.9618                 2.7847
 IR Inten    --     4.8757               145.9486               106.8952
 Raman Activ --     1.7713                 3.0318                 1.1922

                    52                     53                     54
                     A                      A                      A
 Frequencies --   979.2528               988.0409               989.2764
 Red. masses --     5.1476                 4.5726                 6.7162
 Frc consts  --     2.9083                 2.6300                 3.8726
 IR Inten    --    36.5506                41.9519               157.5725
 Raman Activ --     3.2318                 0.9632                 0.4898

                    55                     56                     57
                     A                      A                      A
 Frequencies --  1005.0292              1007.6085              1014.4290
 Red. masses --     6.6091                 4.9963                 6.0104
 Frc consts  --     3.9332                 2.9887                 3.6442
 IR Inten    --    27.9776               221.4544                84.1689
 Raman Activ --     3.2322                 1.7912                 5.7525

                    58                     59                     60
                     A                      A                      A
 Frequencies --  1042.7495              1047.7365              1062.3698
 Red. masses --     7.8317                 5.1740                 5.5983
 Frc consts  --     5.0173                 3.3464                 3.7227
 IR Inten    --   516.1710                90.1957                35.9808
 Raman Activ --     1.3388                 3.2926                 4.3653

                    61                     62                     63
                     A                      A                      A
 Frequencies --  1065.2562              1069.7896              1079.5058
 Red. masses --     5.0900                 2.9794                 5.5334
 Frc consts  --     3.4031                 2.0090                 3.7992
 IR Inten    --    38.2458                 9.7137                27.2829
 Raman Activ --     7.5232                37.0941                 0.7444

                    64                     65                     66
                     A                      A                      A
 Frequencies --  1091.4411              1098.0471              1105.3132
 Red. masses --     2.5648                 2.5889                 2.7370
 Frc consts  --     1.8001                 1.8391                 1.9701
 IR Inten    --    33.5961                52.6671               110.3209
 Raman Activ --     5.0276                 5.2260                 4.0719

                    67                     68                     69
                     A                      A                      A
 Frequencies --  1108.4829              1126.1741              1134.2424
 Red. masses --     2.1253                 3.2502                 1.7696
 Frc consts  --     1.5386                 2.4287                 1.3414
 IR Inten    --    66.1955                22.3220                14.9897
 Raman Activ --     3.8800                 3.1927                 2.2197

                    70                     71                     72
                     A                      A                      A
 Frequencies --  1137.5381              1144.0273              1149.2697
 Red. masses --     2.2414                 2.3017                 2.0416
 Frc consts  --     1.7088                 1.7749                 1.5888
 IR Inten    --    14.1300                36.0699                 2.6613
 Raman Activ --     4.9862                 2.8616                 4.4073

                    73                     74                     75
                     A                      A                      A
 Frequencies --  1160.7907              1161.3682              1170.9818
 Red. masses --     1.6288                 1.8880                 1.7544
 Frc consts  --     1.2931                 1.5003                 1.4173
 IR Inten    --    20.7177                 2.0433                14.6659
 Raman Activ --     1.0552                 2.3855                 3.4523

                    76                     77                     78
                     A                      A                      A
 Frequencies --  1187.7971              1215.6218              1220.6281
 Red. masses --     1.2670                 1.3577                 1.3628
 Frc consts  --     1.0532                 1.1821                 1.1963
 IR Inten    --    13.6367                 9.8368                 3.1617
 Raman Activ --     1.9691                 1.6245                 0.8972

                    79                     80                     81
                     A                      A                      A
 Frequencies --  1232.8984              1241.3964              1244.7542
 Red. masses --     1.3031                 1.2046                 1.3048
 Frc consts  --     1.1670                 1.0937                 1.1911
 IR Inten    --     9.6624                20.1375                10.0119
 Raman Activ --     0.6276                 2.8264                 1.9046

                    82                     83                     84
                     A                      A                      A
 Frequencies --  1264.6250              1271.5284              1274.2352
 Red. masses --     1.2034                 1.2793                 1.2836
 Frc consts  --     1.1339                 1.2187                 1.2280
 IR Inten    --    13.1425                 6.6527                 1.7309
 Raman Activ --     2.8203                 2.9064                 4.9381

                    85                     86                     87
                     A                      A                      A
 Frequencies --  1279.9876              1285.6402              1298.0638
 Red. masses --     1.2706                 1.3607                 1.3121
 Frc consts  --     1.2265                 1.3251                 1.3026
 IR Inten    --     6.3313                67.4103                40.6033
 Raman Activ --     1.4906                 2.2601                 2.2900

                    88                     89                     90
                     A                      A                      A
 Frequencies --  1302.1326              1306.6843              1313.8519
 Red. masses --     1.2378                 1.2766                 1.2915
 Frc consts  --     1.2366                 1.2843                 1.3135
 IR Inten    --     9.9920                29.3722                12.1033
 Raman Activ --     7.1469                 4.2709                11.0396

                    91                     92                     93
                     A                      A                      A
 Frequencies --  1329.0111              1342.0235              1349.8174
 Red. masses --     1.1924                 1.2798                 1.3854
 Frc consts  --     1.2408                 1.3580                 1.4872
 IR Inten    --    47.0709                30.7564                15.9003
 Raman Activ --     2.0449                 1.7663                 5.5496

                    94                     95                     96
                     A                      A                      A
 Frequencies --  1358.6677              1364.5580              1369.6198
 Red. masses --     1.3283                 1.1605                 1.4881
 Frc consts  --     1.4447                 1.2732                 1.6447
 IR Inten    --    12.6809                27.9207                 1.9109
 Raman Activ --     8.1110                 2.0452                 5.5796

                    97                     98                     99
                     A                      A                      A
 Frequencies --  1378.0234              1384.4765              1386.3306
 Red. masses --     1.6646                 1.3389                 1.6781
 Frc consts  --     1.8624                 1.5121                 1.9002
 IR Inten    --    14.1533                 4.6207                 6.4825
 Raman Activ --     3.8920                 5.1486                 5.8956

                   100                    101                    102
                     A                      A                      A
 Frequencies --  1410.7759              1436.5218              1447.7397
 Red. masses --     1.5769                 1.3849                 1.4776
 Frc consts  --     1.8492                 1.6838                 1.8246
 IR Inten    --    40.1426                37.1705                23.3525
 Raman Activ --     1.2561                 1.4198                 0.7134

                   103                    104                    105
                     A                      A                      A
 Frequencies --  1471.3415              1471.9140              1476.5629
 Red. masses --     1.0820                 1.0741                 1.3218
 Frc consts  --     1.3801                 1.3710                 1.6980
 IR Inten    --     3.0859                 2.6640                35.5161
 Raman Activ --     4.3134                 4.6394                 1.1466

                   106                    107                    108
                     A                      A                      A
 Frequencies --  1494.8406              1550.0336              3257.4843
 Red. masses --     1.3739                 1.2285                 1.0557
 Frc consts  --     1.8089                 1.7391                 6.6003
 IR Inten    --    27.5791                42.1855                27.3369
 Raman Activ --     1.2708                 0.7067                78.7737

                   109                    110                    111
                     A                      A                      A
 Frequencies --  3263.0373              3267.0779              3274.2662
 Red. masses --     1.0583                 1.0815                 1.0818
 Frc consts  --     6.6392                 6.8014                 6.8333
 IR Inten    --    37.0176                15.0259                30.9451
 Raman Activ --    71.9371                97.3971                54.6304

                   112                    113                    114
                     A                      A                      A
 Frequencies --  3278.6884              3279.9610              3282.3513
 Red. masses --     1.0828                 1.0843                 1.0852
 Frc consts  --     6.8578                 6.8726                 6.8884
 IR Inten    --     3.0723                 3.7554                25.8620
 Raman Activ --    37.4903                29.2963               143.3616

                   115                    116                    117
                     A                      A                      A
 Frequencies --  3288.1493              3292.8006              3294.5645
 Red. masses --     1.0842                 1.0858                 1.0862
 Frc consts  --     6.9067                 6.9363                 6.9463
 IR Inten    --    10.7034                 3.8527                 1.9638
 Raman Activ --   134.4310                10.7243                16.2148

                   118                    119                    120
                     A                      A                      A
 Frequencies --  3302.6812              3304.2334              3307.7442
 Red. masses --     1.0797                 1.0868                 1.0753
 Frc consts  --     6.9390                 6.9908                 6.9314
 IR Inten    --   100.9725                12.8026               152.5983
 Raman Activ --   111.2173                12.0167               229.9995

                   121                    122                    123
                     A                      A                      A
 Frequencies --  3313.2302              3319.0807              3320.7667
 Red. masses --     1.0696                 1.1067                 1.1064
 Frc consts  --     6.9181                 7.1834                 7.1885
 IR Inten    --   681.9059                75.2779                53.6970
 Raman Activ --    40.2148                47.3724                35.4556

                   124                    125                    126
                     A                      A                      A
 Frequencies --  3362.9584              3363.2870              3367.2529
 Red. masses --     1.0664                 1.0646                 1.0662
 Frc consts  --     7.1057                 7.0950                 7.1223
 IR Inten    --    28.6123                45.2165                34.7020
 Raman Activ --   167.3906                96.5801               162.1940

                   127                    128                    129
                     A                      A                      A
 Frequencies --  3380.3207              3885.6751              3891.6739
 Red. masses --     1.0673                 1.0676                 1.0675
 Frc consts  --     7.1851                 9.4971                 9.5260
 IR Inten    --    56.4654                65.4266                80.7362
 Raman Activ --   150.7854                94.3455               111.5392

 - Thermochemistry -
 -------------------
 Temperature   298.150 Kelvin.  Pressure   1.00000 Atm.
 Atom     1 has atomic number  8 and mass  15.99491

 Molecular mass:   342.11621 amu.
 Principal axes and moments of inertia in atomic units:
                           1         2         3
     Eigenvalues --  4435.12949********************
           X            0.99997  -0.00757   0.00012
           Y            0.00757   0.99997  -0.00163
           Z           -0.00011   0.00163   1.00000
 This molecule is an asymmetric top.
 Rotational symmetry number  1.
 Warning -- assumption of classical behavior for rotation
           may cause significant error
 Rotational temperatures (Kelvin)      0.01953     0.00712     0.00535
 Rotational constants (GHZ):           0.40692     0.14826     0.11153
    6 imaginary frequencies ignored.
 Zero-point vibrational energy     974297.0 (Joules/Mol)
                                  232.86257 (Kcal/Mol)
 Warning -- explicit consideration of  32 degrees of freedom as
           vibrations may cause significant error
 Vibrational temperatures:     16.70    56.84    87.40   136.21   158.02
          (Kelvin)            184.67   220.74   246.98   259.72   267.19
                              338.72   389.05   415.53   423.88   437.97
                              445.70   464.59   485.01   498.40   512.51
                              549.75   599.51   612.28   623.23   625.95
                              684.05   702.52   744.23   761.53   820.25
                              839.01   866.52   894.50   903.38  1003.13
                             1009.31  1050.12  1057.72  1070.32  1117.23
                             1157.40  1232.13  1242.43  1324.44  1370.60
                             1408.92  1421.57  1423.35  1446.01  1449.72
                             1459.54  1500.28  1507.46  1528.51  1532.66
                             1539.19  1553.17  1570.34  1579.84  1590.30
                             1594.86  1620.31  1631.92  1636.66  1646.00
                             1653.54  1670.12  1670.95  1684.78  1708.97
                             1749.01  1756.21  1773.86  1786.09  1790.92
                             1819.51  1829.44  1833.34  1841.61  1849.75
                             1867.62  1873.48  1880.02  1890.34  1912.15
                             1930.87  1942.08  1954.82  1963.29  1970.57
                             1982.67  1991.95  1994.62  2029.79  2066.83
                             2082.97  2116.93  2117.75  2124.44  2150.74
                             2230.15  4686.79  4694.78  4700.59  4710.93
                             4717.30  4719.13  4722.57  4730.91  4737.60
                             4740.14  4751.82  4754.05  4759.10  4766.99
                             4775.41  4777.84  4838.54  4839.01  4844.72
                             4863.52  5590.61  5599.24

 Zero-point correction=                           0.371090 (Hartree/Particle)
 Thermal correction to Energy=                    0.390249
 Thermal correction to Enthalpy=                  0.391193
 Thermal correction to Gibbs Free Energy=         0.322983
 Sum of electronic and zero-point Energies=          -1297.630397
 Sum of electronic and thermal Energies=             -1297.611238
 Sum of electronic and thermal Enthalpies=           -1297.610294
 Sum of electronic and thermal Free Energies=        -1297.678504

                     E (Thermal)             CV                S
                      KCal/Mol        Cal/Mol-Kelvin    Cal/Mol-Kelvin
 Total                  244.885             77.891            143.561
 Electronic               0.000              0.000              0.000
 Translational            0.889              2.981             43.384
 Rotational               0.889              2.981             35.123
 Vibrational            243.108             71.929             65.054
 Vibration     1          0.593              1.987              7.715
 Vibration     2          0.594              1.981              5.284
 Vibration     3          0.597              1.973              4.433
 Vibration     4          0.603              1.953              3.561
 Vibration     5          0.606              1.941              3.272
 Vibration     6          0.611              1.925              2.971
 Vibration     7          0.619              1.899              2.629
 Vibration     8          0.626              1.877              2.417
 Vibration     9          0.629              1.866              2.323
 Vibration    10          0.632              1.859              2.270
 Vibration    11          0.655              1.787              1.837
 Vibration    12          0.674              1.728              1.594
 Vibration    13          0.685              1.695              1.481
 Vibration    14          0.689              1.684              1.447
 Vibration    15          0.695              1.665              1.393
 Vibration    16          0.699              1.655              1.364
 Vibration    17          0.708              1.630              1.295
 Vibration    18          0.718              1.601              1.226
 Vibration    19          0.724              1.583              1.182
 Vibration    20          0.732              1.563              1.139
 Vibration    21          0.752              1.508              1.031
 Vibration    22          0.780              1.434              0.903
 Vibration    23          0.787              1.415              0.873
 Vibration    24          0.794              1.398              0.848
 Vibration    25          0.796              1.394              0.842
 Vibration    26          0.832              1.305              0.722
 Vibration    27          0.844              1.276              0.688
 Vibration    28          0.872              1.212              0.616
 Vibration    29          0.884              1.185              0.589
 Vibration    30          0.926              1.096              0.504
 Vibration    31          0.940              1.068              0.480
 Vibration    32          0.961              1.027              0.446

 Normal termination of Gaussian 09 at Tue Mar 29 17:24:32 2016.
