 Gaussian 09, Revision B.01,
 Gaussian 09:  EM64L-G09RevB.01 12-Aug-2010

 -------------------------------------------------
 # freq=raman b3lyp/6-31+g(2d,p) geom=connectivity
 -------------------------------------------------

 -----------------
 423 7379/7379.com
 -----------------
 Symbolic Z-matrix:
 Charge =  0 Multiplicity = 1

                         Standard orientation:
 ---------------------------------------------------------------------
 Center     Atomic      Atomic             Coordinates (Angstroms)
 Number     Number       Type             X           Y           Z
 ---------------------------------------------------------------------
      1          8           0       -5.028548   -0.561977    0.214721
      2          6           0       -3.753854   -0.082650   -0.237008
      3          6           0       -3.211362    1.269575    0.196109
      4          8           0       -4.194229    2.274987   -0.090710
      5          1           0       -5.143039    1.973630    0.000494
      6          6           0       -1.790348    1.482430   -0.299059
      7          8           0       -1.357596    2.777597    0.140585
      8          1           0       -0.503394    2.998579   -0.330031
      9          6           0       -3.015864   -2.537093    0.090069
     10          8           0       -4.302544   -3.143890    0.278931
     11          1           0       -4.198996   -4.133438    0.180737
     12          6           0       -2.751324   -1.062938    0.349871
     13          8           0       -1.425693   -0.863277   -0.161700
     14          6           0       -0.874014    0.397907    0.243611
     15          8           0        0.337295    0.516884   -0.516390
     16          6           0        1.568514    0.191200    0.144332
     17          6           0        2.045366   -1.114524   -0.471508
     18          8           0        1.096855   -2.170621   -0.261948
     19          1           0        0.211638   -1.711113   -0.343966
     20          6           0        3.373629   -1.568588    0.110971
     21          8           0        3.931070   -2.687278   -0.595006
     22          1           0        4.795435   -2.924206   -0.151711
     23          6           0        2.194867    2.669565    0.290736
     24          8           0        1.168987    3.365912   -0.431088
     25          1           0        1.238558    4.355153   -0.298355
     26          6           0        2.622971    1.260495   -0.087209
     27          8           0        3.890793    0.900616    0.480600
     28          6           0        4.304951   -0.375514   -0.028041
     29          8           0        5.473228   -0.725552    0.728631
     30          1           0        6.197346   -0.918147    0.128496
     31          1           0       -5.572742   -0.787133   -0.543407
     32          1           0       -2.330022   -3.081710    0.704815
     33          1           0       -2.739940   -2.720500   -0.927344
     34          1           0       -2.725477   -0.912525    1.408931
     35          1           0       -3.718659   -0.144630   -1.304632
     36          1           0       -3.140736    1.230724    1.263069
     37          1           0       -1.780376    1.450774   -1.368544
     38          1           0       -0.715530    0.468696    1.299439
     39          1           0        3.072008    3.280851    0.247685
     40          1           0        1.882722    2.633630    1.313562
     41          1           0        2.778336    1.283844   -1.145612
     42          1           0        1.399693    0.062250    1.193032
     43          1           0        2.166864   -0.969418   -1.524638
     44          1           0        3.251579   -1.815325    1.144956
     45          1           0        4.576591   -0.266397   -1.057218
 ---------------------------------------------------------------------

 SCF Done:  E(RB3LYP) =  -1297.97568424     A.U. after   13 cycles

 The electronic state is 1-A.
 Alpha  occ. eigenvalues --  -19.19108 -19.18734 -19.18647 -19.18534 -19.17629
 Alpha  occ. eigenvalues --  -19.16623 -19.16620 -19.15612 -19.14604 -19.13699
 Alpha  occ. eigenvalues --  -19.13492 -10.30962 -10.30322 -10.26456 -10.25907
 Alpha  occ. eigenvalues --  -10.25831 -10.25231 -10.24822 -10.24621 -10.24588
 Alpha  occ. eigenvalues --  -10.24343 -10.23928 -10.23496  -1.10487  -1.09278
 Alpha  occ. eigenvalues --   -1.05770  -1.05192  -1.04142  -1.03967  -1.02633
 Alpha  occ. eigenvalues --   -1.02071  -1.01631  -1.00571  -0.99962  -0.82558
 Alpha  occ. eigenvalues --   -0.80666  -0.79388  -0.78414  -0.72264  -0.69776
 Alpha  occ. eigenvalues --   -0.67168  -0.64993  -0.63434  -0.62159  -0.61644
 Alpha  occ. eigenvalues --   -0.60647  -0.56375  -0.56048  -0.55230  -0.54912
 Alpha  occ. eigenvalues --   -0.53798  -0.53467  -0.52916  -0.51598  -0.51405
 Alpha  occ. eigenvalues --   -0.50894  -0.50365  -0.49019  -0.48618  -0.47013
 Alpha  occ. eigenvalues --   -0.46296  -0.45538  -0.44022  -0.43628  -0.43230
 Alpha  occ. eigenvalues --   -0.42522  -0.41927  -0.41392  -0.40498  -0.39770
 Alpha  occ. eigenvalues --   -0.38741  -0.38080  -0.37549  -0.36286  -0.35431
 Alpha  occ. eigenvalues --   -0.35027  -0.34918  -0.34515  -0.34048  -0.33503
 Alpha  occ. eigenvalues --   -0.32771  -0.31364  -0.31079  -0.30710  -0.30125
 Alpha  occ. eigenvalues --   -0.28950  -0.28604  -0.28062  -0.27331  -0.26505
 Alpha  occ. eigenvalues --   -0.26244
 Alpha virt. eigenvalues --   -0.02233  -0.01833  -0.01731  -0.00172   0.00283
 Alpha virt. eigenvalues --    0.00810   0.02051   0.02138   0.03127   0.03449
 Alpha virt. eigenvalues --    0.03875   0.04123   0.04336   0.05221   0.05801

 Mulliken atomic charges:
              1
     1  O   -0.526581
     2  C   -0.072210
     3  C    0.138075
     4  O   -0.586897
     5  H    0.346843
     6  C    0.119327
     7  O   -0.555326
     8  H    0.400140
     9  C   -0.237839
    10  O   -0.540422
    11  H    0.339309
    12  C    0.181592
    13  O   -0.259457
    14  C    0.001950
    15  O   -0.213021
    16  C    0.209163
    17  C    0.273889
    18  O   -0.583898
    19  H    0.395482
    20  C    0.011502
    21  O   -0.534352
    22  H    0.333295
    23  C   -0.318988
    24  O   -0.554597
    25  H    0.361875
    26  C    0.012400
    27  O   -0.283053
    28  C    0.187670
    29  O   -0.553335
    30  H    0.337124
    31  H    0.344224
    32  H    0.146634
    33  H    0.141778
    34  H    0.110968
    35  H    0.117469
    36  H    0.107707
    37  H    0.130018
    38  H    0.136229
    39  H    0.148643
    40  H    0.154853
    41  H    0.121189
    42  H    0.115769
    43  H    0.126134
    44  H    0.137266
    45  H    0.131462
 Sum of Mulliken atomic charges =   0.00000

 Dipole moment (field-independent basis, Debye):
    X=              2.3887    Y=              0.3543    Z=             -1.1902  Tot=              2.6922
 Quadrupole moment (field-independent basis, Debye-Ang):
   XX=           -123.8223   YY=           -134.9928   ZZ=           -139.0170
   XY=             14.1458   XZ=              1.8025   YZ=             -1.8399

  Exact polarizability: 233.353  -1.694 198.062   1.362   0.644 143.088
 Approx polarizability: 273.766  -0.837 258.555   1.149   1.004 238.897

 ******    6 imaginary frequencies (negative Signs) ******

                     1                      2                      3
                     A                      A                      A
 Frequencies --  -315.5535              -302.3567              -277.8774
 Red. masses --     1.5369                 1.6777                 1.2464
 Frc consts  --     0.0902                 0.0904                 0.0567
 IR Inten    --    32.7260                 4.3488                75.5358
 Raman Activ --     0.2694                 0.0157                 0.7810

                     4                      5                      6
                     A                      A                      A
 Frequencies --  -237.4339               -72.5384               -61.5846
 Red. masses --     1.2157                 6.5506                 6.1850
 Frc consts  --     0.0404                 0.0203                 0.0138
 IR Inten    --   125.0486                 1.5258                 0.1642
 Raman Activ --     1.0996                 0.0796                 0.0254

                     7                      8                      9
                     A                      A                      A
 Frequencies --    19.7872                55.1317                74.6508
 Red. masses --     6.4063                 6.5809                 6.1838
 Frc consts  --     0.0015                 0.0118                 0.0203
 IR Inten    --     1.7783                 1.7658                 1.8572
 Raman Activ --     0.0216                 0.0547                 0.3301

                    10                     11                     12
                     A                      A                      A
 Frequencies --    88.4890                91.2252               120.8525
 Red. masses --     7.2018                 6.6193                 5.7616
 Frc consts  --     0.0332                 0.0325                 0.0496
 IR Inten    --     1.7978                 0.4222                 1.1020
 Raman Activ --     0.0428                 0.0273                 0.0770

                    13                     14                     15
                     A                      A                      A
 Frequencies --   165.4669               183.4614               198.3690
 Red. masses --     6.2194                 6.2698                 6.6361
 Frc consts  --     0.1003                 0.1243                 0.1539
 IR Inten    --     4.9197                 1.8780                 0.1249
 Raman Activ --     0.4100                 0.9899                 0.9835

                    16                     17                     18
                     A                      A                      A
 Frequencies --   214.5157               240.6828               273.2242
 Red. masses --     7.1225                 5.6881                 4.7066
 Frc consts  --     0.1931                 0.1941                 0.2070
 IR Inten    --     0.2100                 4.4984                16.8805
 Raman Activ --     1.5581                 0.2205                 0.6357

                    19                     20                     21
                     A                      A                      A
 Frequencies --   277.3471               292.4268               304.8555
 Red. masses --     4.5905                 5.9201                 5.0887
 Frc consts  --     0.2080                 0.2983                 0.2786
 IR Inten    --     3.3711                 1.9206                 3.1986
 Raman Activ --     0.2081                 0.2599                 2.0944

                    22                     23                     24
                     A                      A                      A
 Frequencies --   314.8679               320.7473               322.9773
 Red. masses --     5.6483                 4.9539                 5.5374
 Frc consts  --     0.3299                 0.3003                 0.3403
 IR Inten    --     1.4306                 2.7156                 0.1610
 Raman Activ --     1.2354                 1.3053                 2.2077

                    25                     26                     27
                     A                      A                      A
 Frequencies --   341.3800               350.7869               380.4432
 Red. masses --     6.9719                 5.4245                 5.6284
 Frc consts  --     0.4787                 0.3933                 0.4800
 IR Inten    --    19.4621                 4.0305                 4.7243
 Raman Activ --     4.0427                 0.2842                 1.1281

                    28                     29                     30
                     A                      A                      A
 Frequencies --   393.7427               423.5865               431.5817
 Red. masses --     5.3033                 5.5119                 4.9533
 Frc consts  --     0.4844                 0.5827                 0.5436
 IR Inten    --    23.0568                 2.6612                 4.4578
 Raman Activ --     2.4693                 3.8670                 2.0490

                    31                     32                     33
                     A                      A                      A
 Frequencies --   445.3452               486.4039               490.1292
 Red. masses --     5.7633                 4.4357                 4.3484
 Frc consts  --     0.6735                 0.6183                 0.6155
 IR Inten    --     0.0300                10.1547                 7.6820
 Raman Activ --     3.5377                 0.0505                 4.6192

                    34                     35                     36
                     A                      A                      A
 Frequencies --   512.4795               527.6590               563.4958
 Red. masses --     4.0613                 3.0915                 4.2716
 Frc consts  --     0.6285                 0.5071                 0.7991
 IR Inten    --    11.3916                 6.9781                21.1252
 Raman Activ --     0.9575                 3.9006                 1.9466

                    37                     38                     39
                     A                      A                      A
 Frequencies --   584.0603               593.5598               612.5638
 Red. masses --     3.7868                 4.1238                 4.8984
 Frc consts  --     0.7611                 0.8560                 1.0829
 IR Inten    --    14.9839                13.8419                27.9932
 Raman Activ --     0.4629                 1.1162                 0.7201

                    40                     41                     42
                     A                      A                      A
 Frequencies --   629.7331               667.2475               682.9005
 Red. masses --     3.1724                 1.1203                 3.0380
 Frc consts  --     0.7412                 0.2939                 0.8348
 IR Inten    --    24.3713                66.8892                46.8370
 Raman Activ --     0.6185                 1.7977                 0.7743

                    43                     44                     45
                     A                      A                      A
 Frequencies --   686.4505               705.7945               756.3247
 Red. masses --     1.2794                 1.0652                 1.0732
 Frc consts  --     0.3552                 0.3126                 0.3617
 IR Inten    --    88.7492               113.2351                91.3628
 Raman Activ --     2.2124                 2.0476                 1.5710

                    46                     47                     48
                     A                      A                      A
 Frequencies --   813.2073               826.2988               854.1146
 Red. masses --     1.1188                 1.0799                 1.7218
 Frc consts  --     0.4359                 0.4344                 0.7401
 IR Inten    --   120.7962                73.4531                 3.6268
 Raman Activ --     1.3569                 2.0251                 0.7907

                    49                     50                     51
                     A                      A                      A
 Frequencies --   854.8909               923.0562               964.7943
 Red. masses --     1.7619                 5.7610                 4.4823
 Frc consts  --     0.7587                 2.8920                 2.4582
 IR Inten    --     7.9287               106.6834               116.0516
 Raman Activ --     1.8380                 2.0968                 0.5995

                    52                     53                     54
                     A                      A                      A
 Frequencies --   971.2103               973.6543               985.7908
 Red. masses --     6.3580                 4.3477                 6.3854
 Frc consts  --     3.5334                 2.4284                 3.6560
 IR Inten    --    15.7489                67.0495                54.9560
 Raman Activ --     1.7402                 0.4523                 1.0842

                    55                     56                     57
                     A                      A                      A
 Frequencies --  1000.0675              1006.0482              1021.3998
 Red. masses --     6.4769                 5.4110                 6.0746
 Frc consts  --     3.8166                 3.2268                 3.7339
 IR Inten    --    58.4233               431.4035               110.1508
 Raman Activ --     1.1748                 3.5032                 2.2304

                    58                     59                     60
                     A                      A                      A
 Frequencies --  1030.3503              1040.2298              1059.4771
 Red. masses --     8.2228                 5.0669                 3.4826
 Frc consts  --     5.1433                 3.2304                 2.3033
 IR Inten    --   442.4874                69.1365                33.7416
 Raman Activ --     1.8823                 2.7147                16.0330

                    61                     62                     63
                     A                      A                      A
 Frequencies --  1072.7654              1079.6979              1082.7841
 Red. masses --     4.1784                 6.6481                 3.5135
 Frc consts  --     2.8331                 4.5662                 2.4270
 IR Inten    --    29.4393                77.4814                15.8717
 Raman Activ --     6.4235                 4.3861                17.4727

                    64                     65                     66
                     A                      A                      A
 Frequencies --  1090.8907              1100.5489              1105.6720
 Red. masses --     2.5017                 2.3103                 2.4761
 Frc consts  --     1.7541                 1.6487                 1.7835
 IR Inten    --    70.9246                31.5364                 8.4636
 Raman Activ --     2.1434                 3.3052                 5.4437

                    67                     68                     69
                     A                      A                      A
 Frequencies --  1115.3933              1122.5827              1129.2189
 Red. masses --     2.6799                 2.3936                 2.7426
 Frc consts  --     1.9644                 1.7772                 2.0605
 IR Inten    --    35.4269                20.4951                22.6859
 Raman Activ --     4.8878                 4.8835                17.3712

                    70                     71                     72
                     A                      A                      A
 Frequencies --  1139.4051              1148.7100              1152.3596
 Red. masses --     2.4925                 1.8967                 2.4621
 Frc consts  --     1.9065                 1.4746                 1.9263
 IR Inten    --    55.6841                 3.2559                 4.0451
 Raman Activ --     3.9470                 1.8275                 2.2556

                    73                     74                     75
                     A                      A                      A
 Frequencies --  1161.6463              1187.8026              1191.1807
 Red. masses --     2.0958                 2.0243                 1.7438
 Frc consts  --     1.6663                 1.6827                 1.4579
 IR Inten    --     7.7349                 3.9813                29.9021
 Raman Activ --     3.6944                 1.0594                 1.5902

                    76                     77                     78
                     A                      A                      A
 Frequencies --  1203.9591              1212.2130              1218.1967
 Red. masses --     1.4076                 1.4939                 1.2746
 Frc consts  --     1.2022                 1.2934                 1.1145
 IR Inten    --     6.5912                 4.7204                 7.0100
 Raman Activ --     2.8985                 0.5946                 1.0496

                    79                     80                     81
                     A                      A                      A
 Frequencies --  1235.1125              1245.2879              1265.2836
 Red. masses --     1.1818                 1.2902                 1.1596
 Frc consts  --     1.0622                 1.1788                 1.0938
 IR Inten    --     5.0898                27.7561                16.2122
 Raman Activ --     1.7570                 0.5862                 0.7814

                    82                     83                     84
                     A                      A                      A
 Frequencies --  1279.9020              1281.8064              1291.1196
 Red. masses --     1.2463                 1.4141                 1.1704
 Frc consts  --     1.2029                 1.3690                 1.1495
 IR Inten    --     7.9870                29.9315                27.3025
 Raman Activ --     4.7599                 3.1906                 1.9775

                    85                     86                     87
                     A                      A                      A
 Frequencies --  1293.9332              1294.9296              1303.2934
 Red. masses --     1.2567                 1.3521                 1.2584
 Frc consts  --     1.2396                 1.3358                 1.2594
 IR Inten    --    50.4179                17.1070                11.7275
 Raman Activ --     2.8311                 1.5970                 8.2405

                    88                     89                     90
                     A                      A                      A
 Frequencies --  1315.4864              1322.3032              1324.1941
 Red. masses --     1.2192                 1.2189                 1.4455
 Frc consts  --     1.2431                 1.2557                 1.4934
 IR Inten    --    16.1487                 7.6623                26.9614
 Raman Activ --     7.8886                 7.7379                 1.9954

                    91                     92                     93
                     A                      A                      A
 Frequencies --  1336.9200              1343.8215              1350.9008
 Red. masses --     1.2345                 1.1569                 1.3937
 Frc consts  --     1.3000                 1.2309                 1.4985
 IR Inten    --    16.4136                30.3580                12.0725
 Raman Activ --     1.9220                 2.9350                 5.3513

                    94                     95                     96
                     A                      A                      A
 Frequencies --  1360.4258              1365.2905              1373.3232
 Red. masses --     1.3174                 1.3420                 1.3416
 Frc consts  --     1.4365                 1.4739                 1.4908
 IR Inten    --    58.1200                 7.5416                 6.5224
 Raman Activ --     2.3610                10.1460                 2.2472

                    97                     98                     99
                     A                      A                      A
 Frequencies --  1387.1662              1393.5136              1394.0977
 Red. masses --     1.5247                 1.5774                 1.2600
 Frc consts  --     1.7286                 1.8048                 1.4428
 IR Inten    --    10.3455                 9.8405                 1.7748
 Raman Activ --     5.2483                 4.8823                 1.9462

                   100                    101                    102
                     A                      A                      A
 Frequencies --  1407.4219              1433.5275              1458.5404
 Red. masses --     1.5538                 1.4204                 1.3848
 Frc consts  --     1.8134                 1.7197                 1.7357
 IR Inten    --    10.9367                29.6280                27.2169
 Raman Activ --     3.4907                 1.4617                 0.9147

                   103                    104                    105
                     A                      A                      A
 Frequencies --  1469.4352              1470.1942              1477.6242
 Red. masses --     1.1433                 1.0809                 1.2943
 Frc consts  --     1.4545                 1.3765                 1.6650
 IR Inten    --    10.2937                 4.8365                 7.7846
 Raman Activ --     5.1679                 4.4064                 0.6259

                   106                    107                    108
                     A                      A                      A
 Frequencies --  1517.0603              1523.8165              3253.6729
 Red. masses --     1.2167                 1.2613                 1.0682
 Frc consts  --     1.6499                 1.7255                 6.6624
 IR Inten    --    35.0813                56.2590                61.0679
 Raman Activ --     1.2074                 1.6612                43.2528

                   109                    110                    111
                     A                      A                      A
 Frequencies --  3254.4841              3256.7401              3261.4040
 Red. masses --     1.0587                 1.0809                 1.0729
 Frc consts  --     6.6064                 6.7545                 6.7242
 IR Inten    --    30.4995                21.4503               125.7265
 Raman Activ --    61.0277                86.2016                 8.1895

                   112                    113                    114
                     A                      A                      A
 Frequencies --  3270.5743              3274.3341              3276.5218
 Red. masses --     1.0825                 1.0788                 1.0716
 Frc consts  --     6.8219                 6.8148                 6.7780
 IR Inten    --     9.1062                41.0585               436.5409
 Raman Activ --   112.0944               160.3356               166.0418

                   115                    116                    117
                     A                      A                      A
 Frequencies --  3281.4874              3285.4861              3289.6356
 Red. masses --     1.0840                 1.0855                 1.0857
 Frc consts  --     6.8774                 6.9037                 6.9222
 IR Inten    --    29.0908                13.4858                21.7504
 Raman Activ --   172.9030                19.3157                17.3051

                   118                    119                    120
                     A                      A                      A
 Frequencies --  3293.6464              3303.0395              3303.6011
 Red. masses --     1.0864                 1.0831                 1.0881
 Frc consts  --     6.9436                 6.9620                 6.9966
 IR Inten    --    10.2671               224.0229                56.1088
 Raman Activ --    56.2759                20.9618                19.1823

                   121                    122                    123
                     A                      A                      A
 Frequencies --  3306.4250              3311.0907              3312.6332
 Red. masses --     1.0969                 1.0954                 1.0850
 Frc consts  --     7.0655                 7.0753                 7.0150
 IR Inten    --    98.9616               228.0613               234.5435
 Raman Activ --    17.6677                93.1135                77.6051

                   124                    125                    126
                     A                      A                      A
 Frequencies --  3366.6552              3366.6895              3368.6556
 Red. masses --     1.0676                 1.0670                 1.0672
 Frc consts  --     7.1294                 7.1256                 7.1353
 IR Inten    --   101.9084                12.7664                56.1227
 Raman Activ --    55.1570               243.4372               137.8711

                   127                    128                    129
                     A                      A                      A
 Frequencies --  3370.6177              3889.2072              3890.8979
 Red. masses --     1.0655                 1.0674                 1.0677
 Frc consts  --     7.1323                 9.5130                 9.5238
 IR Inten    --    31.5330                73.8979                81.6570
 Raman Activ --   147.9295               101.3078                90.7538

 - Thermochemistry -
 -------------------
 Temperature   298.150 Kelvin.  Pressure   1.00000 Atm.
 Atom     1 has atomic number  8 and mass  15.99491

 Molecular mass:   342.11621 amu.
 Principal axes and moments of inertia in atomic units:
                           1         2         3
     Eigenvalues --  4408.53726********************
           X            0.99998   0.00695  -0.00035
           Y           -0.00695   0.99998   0.00026
           Z            0.00035  -0.00025   1.00000
 This molecule is an asymmetric top.
 Rotational symmetry number  1.
 Warning -- assumption of classical behavior for rotation
           may cause significant error
 Rotational temperatures (Kelvin)      0.01965     0.00697     0.00527
 Rotational constants (GHZ):           0.40937     0.14523     0.10990
    6 imaginary frequencies ignored.
 Zero-point vibrational energy     974762.7 (Joules/Mol)
                                  232.97387 (Kcal/Mol)
 Warning -- explicit consideration of  33 degrees of freedom as
           vibrations may cause significant error
 Vibrational temperatures:     28.47    79.32   107.41   127.32   131.25
          (Kelvin)            173.88   238.07   263.96   285.41   308.64
                              346.29   393.11   399.04   420.74   438.62
                              453.02   461.48   464.69   491.17   504.70
                              547.37   566.51   609.45   620.95   640.75
                              699.83   705.19   737.34   759.18   810.74
                              840.33   854.00   881.34   906.04   960.02
                              982.54   987.65  1015.48  1088.18  1170.02
                             1188.86  1228.88  1230.00  1328.07  1388.12
                             1397.35  1400.87  1418.33  1438.87  1447.48
                             1469.56  1482.44  1496.66  1524.35  1543.47
                             1553.44  1557.88  1569.55  1583.44  1590.81
                             1604.80  1615.14  1624.69  1639.35  1652.74
                             1657.99  1671.35  1708.98  1713.84  1732.23
                             1744.10  1752.71  1777.05  1791.69  1820.46
                             1841.49  1844.23  1857.63  1861.68  1863.11
                             1875.15  1892.69  1902.50  1905.22  1923.53
                             1933.46  1943.64  1957.35  1964.35  1975.90
                             1995.82  2004.95  2005.79  2024.96  2062.52
                             2098.51  2114.19  2115.28  2125.97  2182.71
                             2192.43  4681.30  4682.47  4685.72  4692.43
                             4705.62  4711.03  4714.18  4721.32  4727.08
                             4733.05  4738.82  4752.33  4753.14  4757.20
                             4763.92  4766.13  4843.86  4843.91  4846.74
                             4849.56  5595.69  5598.13

 Zero-point correction=                           0.371267 (Hartree/Particle)
 Thermal correction to Energy=                    0.390368
 Thermal correction to Enthalpy=                  0.391313
 Thermal correction to Gibbs Free Energy=         0.324015
 Sum of electronic and zero-point Energies=          -1297.604417
 Sum of electronic and thermal Energies=             -1297.585316
 Sum of electronic and thermal Enthalpies=           -1297.584372
 Sum of electronic and thermal Free Energies=        -1297.651669

                     E (Thermal)             CV                S
                      KCal/Mol        Cal/Mol-Kelvin    Cal/Mol-Kelvin
 Total                  244.960             77.943            141.639
 Electronic               0.000              0.000              0.000
 Translational            0.889              2.981             43.384
 Rotational               0.889              2.981             35.152
 Vibrational            243.182             71.981             63.103
 Vibration     1          0.593              1.986              6.655
 Vibration     2          0.596              1.976              4.624
 Vibration     3          0.599              1.966              4.027
 Vibration     4          0.601              1.957              3.693
 Vibration     5          0.602              1.955              3.634
 Vibration     6          0.609              1.932              3.087
 Vibration     7          0.624              1.885              2.486
 Vibration     8          0.631              1.862              2.293
 Vibration     9          0.637              1.842              2.148
 Vibration    10          0.644              1.819              2.005
 Vibration    11          0.658              1.778              1.798
 Vibration    12          0.676              1.723              1.576
 Vibration    13          0.678              1.715              1.550
 Vibration    14          0.688              1.688              1.460
 Vibration    15          0.696              1.664              1.390
 Vibration    16          0.702              1.645              1.337
 Vibration    17          0.706              1.634              1.306
 Vibration    18          0.708              1.629              1.295
 Vibration    19          0.721              1.593              1.206
 Vibration    20          0.728              1.574              1.163
 Vibration    21          0.750              1.512              1.037
 Vibration    22          0.761              1.484              0.986
 Vibration    23          0.786              1.419              0.880
 Vibration    24          0.793              1.401              0.854
 Vibration    25          0.805              1.371              0.810
 Vibration    26          0.842              1.280              0.693
 Vibration    27          0.846              1.272              0.683
 Vibration    28          0.868              1.222              0.628
 Vibration    29          0.883              1.189              0.592
 Vibration    30          0.919              1.110              0.517
 Vibration    31          0.941              1.066              0.478
 Vibration    32          0.951              1.045              0.461
 Vibration    33          0.972              1.005              0.429

 Normal termination of Gaussian 09 at Sun Mar 27 06:57:20 2016.
