 Gaussian 09, Revision B.01,
 Gaussian 09:  EM64L-G09RevB.01 12-Aug-2010

 --------------------------------------------------
 # freq=raman b3lyp/6-31+g(2df,p) geom=connectivity
 --------------------------------------------------

 ------------
 300 6000.com
 ------------
 Symbolic Z-matrix:
 Charge =  0 Multiplicity = 1

                         Standard orientation:
 ---------------------------------------------------------------------
 Center     Atomic      Atomic             Coordinates (Angstroms)
 Number     Number       Type             X           Y           Z
 ---------------------------------------------------------------------
      1          8           0       -5.115626   -0.401894    0.346279
      2          6           0       -3.779376   -0.080057   -0.066509
      3          6           0       -3.245480    1.282480    0.344635
      4          8           0       -4.181943    2.325755    0.037436
      5          1           0       -5.135692    2.042445    0.134173
      6          6           0       -1.876007    1.606511   -0.228950
      7          8           0       -1.185856    2.752538    0.289511
      8          1           0       -0.334523    2.869033   -0.223693
      9          6           0       -3.051513   -2.529162   -0.111821
     10          8           0       -4.274254   -3.227439    0.161258
     11          1           0       -4.066072   -4.204909    0.193583
     12          6           0       -2.735589   -1.110015    0.332152
     13          8           0       -1.491688   -0.774017   -0.301244
     14          6           0       -0.914802    0.476728    0.101621
     15          8           0        0.298083    0.486545   -0.664315
     16          6           0        1.528203    0.203976    0.018942
     17          6           0        1.949959   -1.168474   -0.482098
     18          8           0        1.081092   -2.251812   -0.121234
     19          1           0        0.146122   -1.996660   -0.367234
     20          6           0        3.312266   -1.552815    0.072862
     21          8           0        3.956610   -2.734511   -0.424737
     22          1           0        4.722748   -2.954240    0.180045
     23          6           0        2.386025    2.646881    0.084317
     24          8           0        1.278112    3.346521   -0.500648
     25          1           0        1.385620    4.297685   -0.210004
     26          6           0        2.648824    1.191006   -0.262266
     27          8           0        3.848881    0.760589    0.396681
     28          6           0        4.390661   -0.489817   -0.051515
     29          8           0        5.372907   -0.552437    0.992644
     30          1           0       -5.650699   -0.598070   -0.426257
     31          1           0        6.243256   -0.674364    0.606345
     32          1           0        4.821299   -0.427408   -1.029040
     33          1           0        3.165303   -1.711784    1.120731
     34          1           0        2.017264   -1.130865   -1.549316
     35          1           0        1.348597    0.159163    1.072808
     36          1           0        2.837883    1.152621   -1.314731
     37          1           0        3.270700    3.194032   -0.166431
     38          1           0        2.265760    2.700148    1.146202
     39          1           0       -0.695257    0.465363    1.148794
     40          1           0       -1.956023    1.698391   -1.291990
     41          1           0       -3.138665    1.264170    1.409132
     42          1           0       -3.799614   -0.077602   -1.136315
     43          1           0       -2.608263   -1.091688    1.394391
     44          1           0       -2.268541   -3.141951    0.283585
     45          1           0       -2.940761   -2.535664   -1.176053
 ---------------------------------------------------------------------

 SCF Done:  E(RB3LYP) =  -1298.00334554     A.U. after   13 cycles

 The electronic state is 1-A.
 Alpha  occ. eigenvalues --  -19.19088 -19.17960 -19.17879 -19.17699 -19.17139
 Alpha  occ. eigenvalues --  -19.17032 -19.16243 -19.15979 -19.14915 -19.14780
 Alpha  occ. eigenvalues --  -19.13363 -10.30321 -10.30168 -10.25977 -10.25723
 Alpha  occ. eigenvalues --  -10.25526 -10.25367 -10.25085 -10.24751 -10.24632
 Alpha  occ. eigenvalues --  -10.24512 -10.24387 -10.23952  -1.09743  -1.09205
 Alpha  occ. eigenvalues --   -1.05760  -1.04992  -1.03719  -1.03121  -1.02558
 Alpha  occ. eigenvalues --   -1.02035  -1.01665  -1.00989  -1.00116  -0.82132
 Alpha  occ. eigenvalues --   -0.80292  -0.79108  -0.78325  -0.71855  -0.69918
 Alpha  occ. eigenvalues --   -0.67348  -0.64886  -0.63174  -0.62196  -0.61324
 Alpha  occ. eigenvalues --   -0.60245  -0.56711  -0.55530  -0.54648  -0.54488
 Alpha  occ. eigenvalues --   -0.53755  -0.53244  -0.53132  -0.52097  -0.51546
 Alpha  occ. eigenvalues --   -0.50689  -0.49989  -0.49144  -0.48629  -0.46391
 Alpha  occ. eigenvalues --   -0.45980  -0.45106  -0.44517  -0.43751  -0.43268
 Alpha  occ. eigenvalues --   -0.42942  -0.42203  -0.41504  -0.40158  -0.38847
 Alpha  occ. eigenvalues --   -0.38411  -0.38181  -0.37506  -0.35836  -0.35347
 Alpha  occ. eigenvalues --   -0.34786  -0.34705  -0.34072  -0.33932  -0.33635
 Alpha  occ. eigenvalues --   -0.32697  -0.31344  -0.30919  -0.30497  -0.29797
 Alpha  occ. eigenvalues --   -0.29234  -0.28643  -0.28307  -0.27630  -0.26894
 Alpha  occ. eigenvalues --   -0.26293
 Alpha virt. eigenvalues --   -0.01992  -0.01926  -0.01632  -0.00388   0.00284
 Alpha virt. eigenvalues --    0.00999   0.01904   0.02316   0.02645   0.03474
 Alpha virt. eigenvalues --    0.03708   0.04304   0.04747   0.05336   0.05748

 Mulliken atomic charges:
              1
     1  O   -0.443597
     2  C   -0.219127
     3  C    0.134111
     4  O   -0.478870
     5  H    0.353228
     6  C   -0.244142
     7  O   -0.473042
     8  H    0.434123
     9  C   -0.421214
    10  O   -0.454312
    11  H    0.348260
    12  C    0.143364
    13  O   -0.060026
    14  C    0.125409
    15  O   -0.024064
    16  C    0.136583
    17  C    0.057064
    18  O   -0.456484
    19  H    0.383490
    20  C   -0.031988
    21  O   -0.463321
    22  H    0.344455
    23  C   -0.397916
    24  O   -0.462075
    25  H    0.359601
    26  C   -0.226509
    27  O   -0.022206
    28  C   -0.083347
    29  O   -0.450971
    30  H    0.358031
    31  H    0.339270
    32  H    0.142358
    33  H    0.142985
    34  H    0.130057
    35  H    0.122733
    36  H    0.122775
    37  H    0.153800
    38  H    0.162192
    39  H    0.128787
    40  H    0.138062
    41  H    0.120794
    42  H    0.120861
    43  H    0.115152
    44  H    0.145270
    45  H    0.150394
 Sum of Mulliken atomic charges =   0.00000

 Dipole moment (field-independent basis, Debye):
    X=              2.8306    Y=             -0.0605    Z=             -1.2293  Tot=              3.0866
 Quadrupole moment (field-independent basis, Debye-Ang):
   XX=           -118.9501   YY=           -136.3103   ZZ=           -140.3346
   XY=             14.4426   XZ=              3.2764   YZ=             -2.6384

  Exact polarizability: 236.346  -0.932 198.118   1.970   0.289 144.015
 Approx polarizability: 277.719  -0.033 256.488   2.990   0.338 240.426

 ******    6 imaginary frequencies (negative Signs) ******

                     1                      2                      3
                     A                      A                      A
 Frequencies --  -322.5279              -281.8930              -216.3151
 Red. masses --     1.6529                 1.7511                 1.2025
 Frc consts  --     0.1013                 0.0820                 0.0332
 IR Inten    --     3.7490                 2.9979                94.1777
 Raman Activ --     0.0548                 0.0452                 0.7774

                     4                      5                      6
                     A                      A                      A
 Frequencies --  -194.5426               -76.6446               -45.1925
 Red. masses --     1.2063                 6.9117                 6.0799
 Frc consts  --     0.0269                 0.0239                 0.0073
 IR Inten    --   106.2027                 0.5896                 0.2821
 Raman Activ --     0.7731                 0.0288                 0.0564

                     7                      8                      9
                     A                      A                      A
 Frequencies --    12.6609                34.4279                56.7347
 Red. masses --     6.2782                 6.6574                 6.2395
 Frc consts  --     0.0006                 0.0046                 0.0118
 IR Inten    --     0.8734                 2.0664                 1.7251
 Raman Activ --     0.1233                 0.0332                 0.0877

                    10                     11                     12
                     A                      A                      A
 Frequencies --    73.1425                80.9369               100.2154
 Red. masses --     6.2746                 6.9457                 6.1019
 Frc consts  --     0.0198                 0.0268                 0.0361
 IR Inten    --     5.1790                 1.0001                 0.8307
 Raman Activ --     0.1573                 0.0289                 0.1484

                    13                     14                     15
                     A                      A                      A
 Frequencies --   153.0680               169.9086               177.2807
 Red. masses --     6.2349                 6.1589                 7.8771
 Frc consts  --     0.0861                 0.1048                 0.1459
 IR Inten    --     2.7805                 3.4496                 0.1627
 Raman Activ --     0.3470                 0.5253                 0.5964

                    16                     17                     18
                     A                      A                      A
 Frequencies --   207.5979               223.7798               264.4839
 Red. masses --     6.7481                 5.8770                 4.7345
 Frc consts  --     0.1713                 0.1734                 0.1951
 IR Inten    --     0.1241                 3.9447                11.3419
 Raman Activ --     2.2569                 0.7505                 0.4906

                    19                     20                     21
                     A                      A                      A
 Frequencies --   270.3125               281.8791               288.9632
 Red. masses --     4.7859                 4.2907                 5.1101
 Frc consts  --     0.2060                 0.2009                 0.2514
 IR Inten    --     7.2878                 1.3190                 2.2367
 Raman Activ --     0.1138                 0.0709                 0.5014

                    22                     23                     24
                     A                      A                      A
 Frequencies --   301.5300               313.0878               318.2021
 Red. masses --     6.0660                 5.6403                 5.9619
 Frc consts  --     0.3249                 0.3257                 0.3557
 IR Inten    --     7.2606                 0.9273                 1.5560
 Raman Activ --     0.5213                 2.5387                 4.1073

                    25                     26                     27
                     A                      A                      A
 Frequencies --   337.9687               357.4902               376.2542
 Red. masses --     6.8252                 4.4595                 7.9919
 Frc consts  --     0.4593                 0.3358                 0.6666
 IR Inten    --     9.5903                 5.3292                 4.2595
 Raman Activ --     3.1175                 0.3253                 3.0572

                    28                     29                     30
                     A                      A                      A
 Frequencies --   393.7992               410.7977               421.9326
 Red. masses --     4.7764                 4.7075                 5.2188
 Frc consts  --     0.4364                 0.4681                 0.5474
 IR Inten    --    15.7332                 6.8889                 0.4235
 Raman Activ --     2.6216                 4.1548                 3.8552

                    31                     32                     33
                     A                      A                      A
 Frequencies --   439.1980               473.9769               480.9548
 Red. masses --     4.0491                 4.6003                 5.3315
 Frc consts  --     0.4602                 0.6089                 0.7266
 IR Inten    --     3.8955                 4.0411                13.2151
 Raman Activ --     1.4135                 4.9161                 0.6013

                    34                     35                     36
                     A                      A                      A
 Frequencies --   501.8531               523.1688               565.7897
 Red. masses --     3.5919                 3.0399                 3.4688
 Frc consts  --     0.5330                 0.4902                 0.6542
 IR Inten    --    21.3520                 5.3864                20.7830
 Raman Activ --     2.3008                 3.6926                 1.4067

                    37                     38                     39
                     A                      A                      A
 Frequencies --   580.2157               609.1614               621.5420
 Red. masses --     2.8461                 6.6366                 4.3414
 Frc consts  --     0.5645                 1.4510                 0.9882
 IR Inten    --    45.3025                14.5617                19.6224
 Raman Activ --     1.4869                 0.6435                 1.0604

                    40                     41                     42
                     A                      A                      A
 Frequencies --   642.3752               689.7006               694.8345
 Red. masses --     6.3517                 1.2674                 3.0185
 Frc consts  --     1.5443                 0.3552                 0.8586
 IR Inten    --    12.7419               101.6099                10.1219
 Raman Activ --     0.6005                 1.1316                 2.0466

                    43                     44                     45
                     A                      A                      A
 Frequencies --   711.1203               731.8965               748.3680
 Red. masses --     1.0576                 1.0727                 1.1056
 Frc consts  --     0.3151                 0.3385                 0.3648
 IR Inten    --    87.8251                83.6110               129.2306
 Raman Activ --     1.7443                 1.8085                 1.5320

                    46                     47                     48
                     A                      A                      A
 Frequencies --   798.1506               835.0648               849.1259
 Red. masses --     1.0713                 1.7728                 1.3079
 Frc consts  --     0.4021                 0.7284                 0.5556
 IR Inten    --   117.7282                 3.6989                49.3598
 Raman Activ --     2.3030                 1.0674                 0.4248

                    49                     50                     51
                     A                      A                      A
 Frequencies --   871.3877               913.0498               940.2805
 Red. masses --     1.4218                 5.2908                 5.4133
 Frc consts  --     0.6361                 2.5987                 2.8199
 IR Inten    --    33.9042               192.6743                19.0723
 Raman Activ --     1.1885                 5.0228                 0.2185

                    52                     53                     54
                     A                      A                      A
 Frequencies --   970.3840               977.9585               982.2453
 Red. masses --     3.9933                 6.3624                 5.7935
 Frc consts  --     2.2155                 3.5852                 3.2933
 IR Inten    --    64.6515                82.8981               119.2251
 Raman Activ --     1.1276                 1.7032                 6.8278

                    55                     56                     57
                     A                      A                      A
 Frequencies --   997.9064              1003.1786              1017.5343
 Red. masses --     6.0181                 7.1686                 6.1648
 Frc consts  --     3.5309                 4.2505                 3.7607
 IR Inten    --   273.8332                49.4060               173.4921
 Raman Activ --     0.8145                 0.5145                 4.2467

                    58                     59                     60
                     A                      A                      A
 Frequencies --  1034.3790              1057.7210              1067.8931
 Red. masses --     4.4318                 3.5780                 2.8514
 Frc consts  --     2.7938                 2.3585                 1.9158
 IR Inten    --   267.7017               116.0127                 2.8707
 Raman Activ --     3.6622                 4.0935                 9.6923

                    61                     62                     63
                     A                      A                      A
 Frequencies --  1068.6554              1078.2860              1084.1972
 Red. masses --     5.6775                 5.9983                 4.5195
 Frc consts  --     3.8202                 4.1091                 3.1301
 IR Inten    --    47.7473                15.8345                85.9005
 Raman Activ --     1.0069                 1.7758                15.8730

                    64                     65                     66
                     A                      A                      A
 Frequencies --  1101.2829              1107.0395              1113.2296
 Red. masses --     3.1985                 3.6436                 2.9113
 Frc consts  --     2.2856                 2.6309                 2.1257
 IR Inten    --    34.9703                62.5746                 5.2587
 Raman Activ --     5.9865                12.3768                 5.2486

                    67                     68                     69
                     A                      A                      A
 Frequencies --  1115.9469              1126.4565              1134.5628
 Red. masses --     2.4763                 2.1018                 3.0326
 Frc consts  --     1.8170                 1.5713                 2.3000
 IR Inten    --   105.0765               131.4454                26.3702
 Raman Activ --     5.7112                 1.6493                11.4356

                    70                     71                     72
                     A                      A                      A
 Frequencies --  1144.6994              1148.2044              1156.8200
 Red. masses --     3.2317                 1.9637                 1.7891
 Frc consts  --     2.4950                 1.5253                 1.4107
 IR Inten    --    31.4989                10.5108                19.1415
 Raman Activ --     6.0073                 4.3854                 1.3973

                    73                     74                     75
                     A                      A                      A
 Frequencies --  1167.5550              1177.0310              1187.0880
 Red. masses --     1.7938                 1.6245                 1.8688
 Frc consts  --     1.4407                 1.3260                 1.5516
 IR Inten    --    10.0094                 1.9611                12.1622
 Raman Activ --     3.1425                 1.6481                 1.7640

                    76                     77                     78
                     A                      A                      A
 Frequencies --  1194.9950              1212.8217              1216.3078
 Red. masses --     1.4794                 1.3648                 1.3678
 Frc consts  --     1.2447                 1.1828                 1.1922
 IR Inten    --    10.9887                 6.3011                 3.9724
 Raman Activ --     3.3435                 1.0627                 1.1037

                    79                     80                     81
                     A                      A                      A
 Frequencies --  1225.7991              1236.8668              1248.5772
 Red. masses --     1.2296                 1.2534                 1.3718
 Frc consts  --     1.0886                 1.1298                 1.2600
 IR Inten    --    13.8857                 3.0124                 9.6953
 Raman Activ --     3.5696                 0.8645                 1.5690

                    82                     83                     84
                     A                      A                      A
 Frequencies --  1278.7949              1280.8505              1285.3952
 Red. masses --     1.2331                 1.3179                 1.3666
 Frc consts  --     1.1881                 1.2739                 1.3304
 IR Inten    --     0.2066                15.1552                50.4375
 Raman Activ --     3.9020                 1.4188                 0.5566

                    85                     86                     87
                     A                      A                      A
 Frequencies --  1288.0744              1294.8054              1296.9574
 Red. masses --     1.2668                 1.2242                 1.3306
 Frc consts  --     1.2384                 1.2093                 1.3188
 IR Inten    --     8.9362                 8.3976                59.5981
 Raman Activ --     1.0952                 4.7046                 1.2783

                    88                     89                     90
                     A                      A                      A
 Frequencies --  1307.9886              1322.0580              1324.0257
 Red. masses --     1.2016                 1.2262                 1.4047
 Frc consts  --     1.2112                 1.2628                 1.4509
 IR Inten    --    14.7016                 3.4785                20.2154
 Raman Activ --    14.2483                 7.3417                 5.0171

                    91                     92                     93
                     A                      A                      A
 Frequencies --  1338.1598              1340.0479              1350.5119
 Red. masses --     1.1448                 1.2438                 1.1908
 Frc consts  --     1.2078                 1.3159                 1.2796
 IR Inten    --    32.4826                16.3582                59.2693
 Raman Activ --     5.5415                 2.7659                 1.2300

                    94                     95                     96
                     A                      A                      A
 Frequencies --  1352.9755              1363.2847              1366.2640
 Red. masses --     1.1450                 1.4644                 1.4422
 Frc consts  --     1.2349                 1.6035                 1.5862
 IR Inten    --    28.0700                 9.7648                 3.5707
 Raman Activ --     4.8500                 6.2447                 9.9872

                    97                     98                     99
                     A                      A                      A
 Frequencies --  1382.8404              1384.4433              1390.6661
 Red. masses --     1.4603                 1.4617                 1.4964
 Frc consts  --     1.6453                 1.6507                 1.7050
 IR Inten    --    18.5106                25.6015                12.8552
 Raman Activ --     3.3322                 0.7212                 6.0718

                   100                    101                    102
                     A                      A                      A
 Frequencies --  1410.3885              1434.6798              1457.5037
 Red. masses --     1.3772                 1.3672                 1.1007
 Frc consts  --     1.6141                 1.6581                 1.3777
 IR Inten    --     9.6813                25.3811                 8.5476
 Raman Activ --     3.1669                 1.6582                 5.3158

                   103                    104                    105
                     A                      A                      A
 Frequencies --  1463.9996              1468.3102              1468.4909
 Red. masses --     1.3361                 1.1464                 1.2426
 Frc consts  --     1.6872                 1.4563                 1.5788
 IR Inten    --    74.8466                 3.0883                24.7235
 Raman Activ --     1.6121                 4.9423                 2.0297

                   106                    107                    108
                     A                      A                      A
 Frequencies --  1474.4354              1490.8235              3230.5601
 Red. masses --     1.3391                 1.3218                 1.0690
 Frc consts  --     1.7152                 1.7309                 6.5736
 IR Inten    --    23.8670                20.5111               873.0185
 Raman Activ --     0.7936                 1.4822               136.8917

                   109                    110                    111
                     A                      A                      A
 Frequencies --  3251.4198              3257.3511              3259.2183
 Red. masses --     1.0584                 1.0727                 1.0798
 Frc consts  --     6.5922                 6.7062                 6.7578
 IR Inten    --    39.3287                 4.8509                19.1046
 Raman Activ --    59.4423               175.2250               104.3663

                   112                    113                    114
                     A                      A                      A
 Frequencies --  3261.8012              3264.6582              3271.7164
 Red. masses --     1.0673                 1.0825                 1.0813
 Frc consts  --     6.6905                 6.7978                 6.8195
 IR Inten    --    27.2722                 9.5768                10.0407
 Raman Activ --    61.7185                24.7022               132.9977

                   115                    116                    117
                     A                      A                      A
 Frequencies --  3278.1856              3279.3729              3283.3050
 Red. masses --     1.0862                 1.0848                 1.0844
 Frc consts  --     6.8777                 6.8734                 6.8876
 IR Inten    --    13.4290                 1.8956                 5.8967
 Raman Activ --    68.2658                29.5248                35.0594

                   118                    119                    120
                     A                      A                      A
 Frequencies --  3291.9477              3296.8402              3300.9203
 Red. masses --     1.0865                 1.0880                 1.0878
 Frc consts  --     6.9371                 6.9676                 6.9833
 IR Inten    --     1.4142                27.9778                63.6215
 Raman Activ --    43.4033                22.6794                35.5753

                   121                    122                    123
                     A                      A                      A
 Frequencies --  3303.1163              3311.5057              3322.9280
 Red. masses --     1.1000                 1.1053                 1.0672
 Frc consts  --     7.0713                 7.1411                 6.9429
 IR Inten    --    91.8608                55.8698               364.2112
 Raman Activ --    15.5020                55.4762               169.8368

                   124                    125                    126
                     A                      A                      A
 Frequencies --  3349.2950              3358.9653              3359.0473
 Red. masses --     1.0663                 1.0663                 1.0683
 Frc consts  --     7.0478                 7.0881                 7.1016
 IR Inten    --    42.6650                85.1017                26.0719
 Raman Activ --   126.7989                92.4811               138.7764

                   127                    128                    129
                     A                      A                      A
 Frequencies --  3359.7590              3874.7116              3876.1676
 Red. masses --     1.0667                 1.0678                 1.0673
 Frc consts  --     7.0943                 9.4454                 9.4479
 IR Inten    --    51.3192                91.5983                54.5137
 Raman Activ --   163.7842                72.8450               149.1869

 - Thermochemistry -
 -------------------
 Temperature   298.150 Kelvin.  Pressure   1.00000 Atm.
 Atom     1 has atomic number  8 and mass  15.99491

 Molecular mass:   342.11621 amu.
 Principal axes and moments of inertia in atomic units:
                           1         2         3
     Eigenvalues --  4471.20404********************
           X            0.99997   0.00746   0.00039
           Y           -0.00746   0.99997   0.00021
           Z           -0.00039  -0.00021   1.00000
 This molecule is an asymmetric top.
 Rotational symmetry number  1.
 Warning -- assumption of classical behavior for rotation
           may cause significant error
 Rotational temperatures (Kelvin)      0.01937     0.00693     0.00524
 Rotational constants (GHZ):           0.40364     0.14431     0.10928
    6 imaginary frequencies ignored.
 Zero-point vibrational energy     971743.7 (Joules/Mol)
                                  232.25232 (Kcal/Mol)
 Warning -- explicit consideration of  32 degrees of freedom as
           vibrations may cause significant error
 Vibrational temperatures:     18.22    49.53    81.63   105.24   116.45
          (Kelvin)            144.19   220.23   244.46   255.07   298.69
                              321.97   380.53   388.92   405.56   415.75
                              433.83   450.46   457.82   486.26   514.35
                              541.35   566.59   591.05   607.07   631.91
                              681.95   691.99   722.05   752.72   814.04
                              834.80   876.45   894.26   924.23   992.32
                              999.71  1023.14  1053.03  1076.73  1148.36
                             1201.47  1221.70  1253.73  1313.67  1352.85
                             1396.16  1407.06  1413.23  1435.76  1443.35
                             1464.00  1488.24  1521.82  1536.46  1537.55
                             1551.41  1559.92  1584.50  1592.78  1601.69
                             1605.60  1620.72  1632.38  1646.97  1652.01
                             1664.40  1679.85  1693.48  1707.95  1719.33
                             1744.98  1749.99  1763.65  1779.57  1796.42
                             1839.90  1842.86  1849.39  1853.25  1862.93
                             1866.03  1881.90  1902.14  1904.98  1925.31
                             1928.03  1943.08  1946.63  1961.46  1965.75
                             1989.60  1991.90  2000.86  2029.23  2064.18
                             2097.02  2106.37  2112.57  2112.83  2121.38
                             2144.96  4648.05  4678.06  4686.60  4689.28
                             4693.00  4697.11  4707.26  4716.57  4718.28
                             4723.94  4736.37  4743.41  4749.28  4752.44
                             4764.51  4780.95  4818.88  4832.80  4832.91
                             4833.94  5574.84  5576.93

 Zero-point correction=                           0.370118 (Hartree/Particle)
 Thermal correction to Energy=                    0.389614
 Thermal correction to Enthalpy=                  0.390558
 Thermal correction to Gibbs Free Energy=         0.321125
 Sum of electronic and zero-point Energies=          -1297.633228
 Sum of electronic and thermal Energies=             -1297.613732
 Sum of electronic and thermal Enthalpies=           -1297.612788
 Sum of electronic and thermal Free Energies=        -1297.682220

                     E (Thermal)             CV                S
                      KCal/Mol        Cal/Mol-Kelvin    Cal/Mol-Kelvin
 Total                  244.486             78.208            146.134
 Electronic               0.000              0.000              0.000
 Translational            0.889              2.981             43.384
 Rotational               0.889              2.981             35.178
 Vibrational            242.709             72.246             67.571
 Vibration     1          0.593              1.987              7.542
 Vibration     2          0.594              1.983              5.556
 Vibration     3          0.596              1.975              4.568
 Vibration     4          0.599              1.967              4.067
 Vibration     5          0.600              1.962              3.868
 Vibration     6          0.604              1.949              3.450
 Vibration     7          0.619              1.899              2.634
 Vibration     8          0.625              1.880              2.436
 Vibration     9          0.628              1.870              2.357
 Vibration    10          0.641              1.829              2.065
 Vibration    11          0.649              1.805              1.928
 Vibration    12          0.671              1.738              1.632
 Vibration    13          0.674              1.728              1.594
 Vibration    14          0.681              1.707              1.522
 Vibration    15          0.686              1.694              1.480
 Vibration    16          0.694              1.671              1.408
 Vibration    17          0.701              1.649              1.346
 Vibration    18          0.705              1.639              1.319
 Vibration    19          0.718              1.600              1.222
 Vibration    20          0.733              1.560              1.133
 Vibration    21          0.747              1.521              1.054
 Vibration    22          0.761              1.483              0.986
 Vibration    23          0.775              1.447              0.924
 Vibration    24          0.784              1.423              0.885
 Vibration    25          0.799              1.385              0.829
 Vibration    26          0.831              1.308              0.726
 Vibration    27          0.837              1.292              0.707
 Vibration    28          0.857              1.246              0.654
 Vibration    29          0.878              1.199              0.603
 Vibration    30          0.922              1.105              0.512
 Vibration    31          0.937              1.074              0.485
 Vibration    32          0.968              1.012              0.434

 Normal termination of Gaussian 09 at Fri Feb 12 12:39:30 2016.
