 Gaussian 09, Revision B.01,
 Gaussian 09:  EM64L-G09RevB.01 12-Aug-2010

 -------------------------------------------------
 # freq=raman b3lyp/6-31+g(2d,p) geom=connectivity
 -------------------------------------------------

 -----------------
 423 6117/6117.com
 -----------------
 Symbolic Z-matrix:
 Charge =  0 Multiplicity = 1

                         Standard orientation:
 ---------------------------------------------------------------------
 Center     Atomic      Atomic             Coordinates (Angstroms)
 Number     Number       Type             X           Y           Z
 ---------------------------------------------------------------------
      1          8           0        5.049482   -0.421969   -0.144345
      2          6           0        3.695979   -0.158755    0.251461
      3          6           0        3.318142    1.240229   -0.208590
      4          8           0        4.305022    2.247828    0.054211
      5          1           0        5.176020    1.754968    0.028542
      6          6           0        1.872779    1.552409    0.142798
      7          8           0        1.511141    2.835522   -0.387086
      8          1           0        0.549513    3.004722   -0.170004
      9          6           0        3.014692   -2.573198    0.192114
     10          8           0        4.149863   -3.183196   -0.438361
     11          1           0        3.992887   -4.158287   -0.280067
     12          6           0        2.690847   -1.165676   -0.281393
     13          8           0        1.382445   -0.925164    0.256527
     14          6           0        0.938515    0.384181   -0.128888
     15          8           0       -0.286094    0.495243    0.609610
     16          6           0       -1.524509    0.226426   -0.063835
     17          6           0       -1.974331   -1.155179    0.382542
     18          8           0       -1.064953   -2.176859   -0.052145
     19          1           0       -0.149869   -1.814317    0.127390
     20          6           0       -3.351320   -1.498188   -0.161679
     21          8           0       -3.950975   -2.678118    0.392020
     22          1           0       -4.888434   -2.784496    0.060127
     23          6           0       -2.347825    2.667789   -0.183794
     24          8           0       -1.192370    3.352688    0.318357
     25          1           0       -1.410272    4.328042    0.280095
     26          6           0       -2.610378    1.239387    0.263727
     27          8           0       -3.889638    0.861161   -0.264600
     28          6           0       -4.397777   -0.428817    0.107430
     29          8           0       -5.578713   -0.567001   -0.696920
     30          1           0       -6.333577   -0.740875   -0.129868
     31          1           0       -4.661720   -0.430189    1.144364
     32          1           0       -3.268323   -1.628742   -1.220437
     33          1           0       -2.017234   -1.169740    1.451583
     34          1           0       -1.356836    0.218624   -1.120587
     35          1           0       -2.704048    1.258660    1.329445
     36          1           0       -3.205639    3.249495    0.082050
     37          1           0       -2.277325    2.661076   -1.251448
     38          1           0        2.159808   -3.191835    0.015025
     39          1           0        3.194216   -2.539584    1.246411
     40          1           0        2.663118   -1.132250   -1.350511
     41          1           0        5.576309   -0.624626    0.632175
     42          1           0        3.652574   -0.180944    1.320350
     43          1           0        3.311247    1.168429   -1.276156
     44          1           0        1.859498    1.675761    1.205581
     45          1           0        0.707521    0.371371   -1.173578
 ---------------------------------------------------------------------

 SCF Done:  E(RB3LYP) =  -1297.99376599     A.U. after   13 cycles

 The electronic state is 1-A.
 Alpha  occ. eigenvalues --  -19.19705 -19.19036 -19.18460 -19.18058 -19.17557
 Alpha  occ. eigenvalues --  -19.17445 -19.16448 -19.15766 -19.15047 -19.14456
 Alpha  occ. eigenvalues --  -19.13998 -10.31174 -10.30572 -10.26215 -10.25953
 Alpha  occ. eigenvalues --  -10.25845 -10.25568 -10.25422 -10.24763 -10.24559
 Alpha  occ. eigenvalues --  -10.24435 -10.24280 -10.24004  -1.10834  -1.09027
 Alpha  occ. eigenvalues --   -1.05869  -1.05617  -1.04525  -1.03374  -1.03072
 Alpha  occ. eigenvalues --   -1.02625  -1.02063  -1.00792  -1.00436  -0.82420
 Alpha  occ. eigenvalues --   -0.81074  -0.79286  -0.78380  -0.71945  -0.70081
 Alpha  occ. eigenvalues --   -0.67685  -0.65258  -0.63336  -0.62898  -0.61281
 Alpha  occ. eigenvalues --   -0.60245  -0.56535  -0.56131  -0.55320  -0.54757
 Alpha  occ. eigenvalues --   -0.54632  -0.53361  -0.53090  -0.51847  -0.51164
 Alpha  occ. eigenvalues --   -0.50927  -0.50342  -0.49661  -0.49315  -0.46670
 Alpha  occ. eigenvalues --   -0.46267  -0.45266  -0.44273  -0.43699  -0.43319
 Alpha  occ. eigenvalues --   -0.42859  -0.42140  -0.41501  -0.40276  -0.39860
 Alpha  occ. eigenvalues --   -0.38792  -0.38027  -0.37865  -0.36904  -0.36083
 Alpha  occ. eigenvalues --   -0.35623  -0.34967  -0.34584  -0.34498  -0.34144
 Alpha  occ. eigenvalues --   -0.33350  -0.31855  -0.30990  -0.30550  -0.29883
 Alpha  occ. eigenvalues --   -0.29592  -0.28909  -0.28259  -0.27478  -0.26961
 Alpha  occ. eigenvalues --   -0.26567
 Alpha virt. eigenvalues --   -0.02251  -0.02080  -0.02039  -0.00304   0.00417
 Alpha virt. eigenvalues --    0.01063   0.01706   0.02339   0.03106   0.03407
 Alpha virt. eigenvalues --    0.03890   0.04273   0.04682   0.05346   0.05499

 Mulliken atomic charges:
              1
     1  O   -0.549148
     2  C    0.010410
     3  C    0.159781
     4  O   -0.559853
     5  H    0.350555
     6  C   -0.060885
     7  O   -0.567520
     8  H    0.402104
     9  C   -0.152596
    10  O   -0.505052
    11  H    0.331729
    12  C    0.073556
    13  O   -0.238078
    14  C    0.116746
    15  O   -0.213495
    16  C    0.208879
    17  C    0.213957
    18  O   -0.582040
    19  H    0.397755
    20  C    0.142964
    21  O   -0.552380
    22  H    0.334311
    23  C   -0.278996
    24  O   -0.550544
    25  H    0.360171
    26  C   -0.059754
    27  O   -0.246976
    28  C    0.062863
    29  O   -0.530049
    30  H    0.336267
    31  H    0.131177
    32  H    0.133914
    33  H    0.125174
    34  H    0.115443
    35  H    0.116550
    36  H    0.146809
    37  H    0.155583
    38  H    0.145286
    39  H    0.137560
    40  H    0.121742
    41  H    0.345264
    42  H    0.116536
    43  H    0.109684
    44  H    0.125187
    45  H    0.119408
 Sum of Mulliken atomic charges =   0.00000

 Dipole moment (field-independent basis, Debye):
    X=             -2.7559    Y=             -0.2120    Z=              2.4117  Tot=              3.6682
 Quadrupole moment (field-independent basis, Debye-Ang):
   XX=           -120.6011   YY=           -137.4342   ZZ=           -139.5593
   XY=            -19.2116   XZ=              3.1738   YZ=             -0.4177

  Exact polarizability: 235.095   2.517 197.247   0.554  -1.178 143.961
 Approx polarizability: 276.443   3.162 257.709  -0.318  -2.090 239.271

 ******    6 imaginary frequencies (negative Signs) ******

                     1                      2                      3
                     A                      A                      A
 Frequencies --  -269.6933              -242.8524              -174.8448
 Red. masses --     1.7563                 1.8197                 1.2708
 Frc consts  --     0.0753                 0.0632                 0.0229
 IR Inten    --     1.7604                15.0710               101.8559
 Raman Activ --     0.0501                 0.1292                 0.7239

                     4                      5                      6
                     A                      A                      A
 Frequencies --  -158.3677               -78.1617               -42.4938
 Red. masses --     1.3751                 6.8623                 5.7877
 Frc consts  --     0.0203                 0.0247                 0.0062
 IR Inten    --    77.4229                 0.6869                 1.1638
 Raman Activ --     0.4322                 0.0168                 0.0147

                     7                      8                      9
                     A                      A                      A
 Frequencies --    19.4446                44.6571                73.3965
 Red. masses --     6.3823                 6.6696                 6.4684
 Frc consts  --     0.0014                 0.0078                 0.0205
 IR Inten    --     1.8045                 0.1883                 4.0404
 Raman Activ --     0.0386                 0.0459                 0.1217

                    10                     11                     12
                     A                      A                      A
 Frequencies --    85.9296               107.1600               107.9732
 Red. masses --     6.3941                 4.4831                 5.6090
 Frc consts  --     0.0278                 0.0303                 0.0385
 IR Inten    --     1.1724                16.5853                 0.7911
 Raman Activ --     0.2934                 0.0861                 0.1262

                    13                     14                     15
                     A                      A                      A
 Frequencies --   143.6283               166.6014               185.7793
 Red. masses --     5.8866                 6.0679                 6.7404
 Frc consts  --     0.0715                 0.0992                 0.1371
 IR Inten    --     4.1020                 1.3058                 0.2983
 Raman Activ --     0.2668                 0.3275                 0.1940

                    16                     17                     18
                     A                      A                      A
 Frequencies --   191.1632               226.4720               260.2602
 Red. masses --     6.9986                 6.1145                 4.2067
 Frc consts  --     0.1507                 0.1848                 0.1679
 IR Inten    --     0.1770                 0.8991                11.8448
 Raman Activ --     2.6612                 0.7743                 0.4424

                    19                     20                     21
                     A                      A                      A
 Frequencies --   273.5735               296.8388               302.3578
 Red. masses --     4.8206                 5.1082                 4.5020
 Frc consts  --     0.2126                 0.2652                 0.2425
 IR Inten    --     0.8908                 2.5445                 0.8209
 Raman Activ --     0.1395                 0.4367                 0.7104

                    22                     23                     24
                     A                      A                      A
 Frequencies --   310.9482               317.4608               323.5946
 Red. masses --     5.8429                 4.7210                 5.7730
 Frc consts  --     0.3329                 0.2803                 0.3562
 IR Inten    --     3.5175                 6.3533                 3.4209
 Raman Activ --     1.3422                 1.3956                 1.4102

                    25                     26                     27
                     A                      A                      A
 Frequencies --   335.9673               356.2204               368.0920
 Red. masses --     6.8750                 5.0998                 6.8807
 Frc consts  --     0.4572                 0.3813                 0.5493
 IR Inten    --    12.8640                 6.1816                 1.8483
 Raman Activ --     4.5529                 0.4593                 1.7747

                    28                     29                     30
                     A                      A                      A
 Frequencies --   398.8944               417.8351               428.6586
 Red. masses --     3.6915                 6.3611                 4.6642
 Frc consts  --     0.3461                 0.6543                 0.5050
 IR Inten    --    16.5766                 3.0099                 2.1260
 Raman Activ --     3.9586                 4.2661                 1.6294

                    31                     32                     33
                     A                      A                      A
 Frequencies --   434.2524               466.5965               481.0464
 Red. masses --     5.8573                 4.6400                 3.9830
 Frc consts  --     0.6508                 0.5952                 0.5430
 IR Inten    --     4.8628                 3.1412                 8.7766
 Raman Activ --     2.3244                 6.2970                 0.4077

                    34                     35                     36
                     A                      A                      A
 Frequencies --   503.1786               518.0202               560.0153
 Red. masses --     4.0967                 3.1904                 3.5885
 Frc consts  --     0.6111                 0.5044                 0.6631
 IR Inten    --    14.9259                 4.3822                 6.1343
 Raman Activ --     1.9860                 5.8431                 0.8489

                    37                     38                     39
                     A                      A                      A
 Frequencies --   578.3697               595.0838               618.0449
 Red. masses --     2.7505                 5.5544                 5.9077
 Frc consts  --     0.5421                 1.1589                 1.3296
 IR Inten    --    39.3143                 6.1818                 6.5737
 Raman Activ --     0.4283                 0.5365                 0.4757

                    40                     41                     42
                     A                      A                      A
 Frequencies --   622.2223               683.5969               724.4000
 Red. masses --     4.6056                 5.7955                 1.0554
 Frc consts  --     1.0506                 1.5957                 0.3263
 IR Inten    --    38.7262                10.3469                83.7625
 Raman Activ --     1.6515                 0.9285                 1.8367

                    43                     44                     45
                     A                      A                      A
 Frequencies --   728.6894               734.3797               756.4593
 Red. masses --     1.0827                 1.0809                 1.0615
 Frc consts  --     0.3387                 0.3435                 0.3579
 IR Inten    --   105.3261                95.9615                83.0403
 Raman Activ --     1.4668                 1.5282                 1.3403

                    46                     47                     48
                     A                      A                      A
 Frequencies --   831.9573               837.7620               860.7296
 Red. masses --     1.1119                 1.1130                 1.7444
 Frc consts  --     0.4535                 0.4602                 0.7614
 IR Inten    --    51.2962                70.0003                 5.2824
 Raman Activ --     1.0595                 0.7131                 0.6528

                    49                     50                     51
                     A                      A                      A
 Frequencies --   862.4709               917.3283               948.6964
 Red. masses --     1.5316                 6.1509                 5.8349
 Frc consts  --     0.6712                 3.0496                 3.0941
 IR Inten    --    11.6447               135.8716                58.0594
 Raman Activ --     0.4487                 3.3803                 0.7335

                    52                     53                     54
                     A                      A                      A
 Frequencies --   974.3432               982.2856               997.2993
 Red. masses --     5.0400                 7.6993                 5.5060
 Frc consts  --     2.8191                 4.3770                 3.2265
 IR Inten    --    53.2829               212.5110                70.0957
 Raman Activ --     3.8440                 0.8763                 0.7913

                    55                     56                     57
                     A                      A                      A
 Frequencies --  1001.4795              1011.5937              1020.2577
 Red. masses --     5.4472                 5.6838                 7.0376
 Frc consts  --     3.2189                 3.4269                 4.3162
 IR Inten    --   284.3963                30.1111                95.0668
 Raman Activ --     2.2746                 1.8726                 3.7836

                    58                     59                     60
                     A                      A                      A
 Frequencies --  1034.3953              1053.2463              1066.9400
 Red. masses --     5.7699                 4.6880                 4.0694
 Frc consts  --     3.6374                 3.0641                 2.7293
 IR Inten    --   355.5813               136.3416                 1.0828
 Raman Activ --     2.1295                 5.6769                 4.7616

                    61                     62                     63
                     A                      A                      A
 Frequencies --  1069.2253              1075.3416              1083.7830
 Red. masses --     6.9277                 5.7463                 3.6857
 Frc consts  --     4.6663                 3.9150                 2.5507
 IR Inten    --   124.4228                15.6121                15.5391
 Raman Activ --     2.1603                 3.7884                19.2896

                    64                     65                     66
                     A                      A                      A
 Frequencies --  1107.0269              1111.3993              1114.0260
 Red. masses --     2.9502                 3.1991                 3.4688
 Frc consts  --     2.1302                 2.3282                 2.5364
 IR Inten    --    24.1789                56.4003                32.9184
 Raman Activ --     8.4112                14.6090                 1.4877

                    67                     68                     69
                     A                      A                      A
 Frequencies --  1120.4496              1124.7871              1135.4083
 Red. masses --     2.3080                 2.6196                 2.0325
 Frc consts  --     1.7072                 1.9527                 1.5438
 IR Inten    --    85.5297                20.6430                 9.6565
 Raman Activ --     1.2989                 4.2954                 1.9234

                    70                     71                     72
                     A                      A                      A
 Frequencies --  1145.9244              1150.0114              1159.2737
 Red. masses --     2.6915                 2.9631                 1.5179
 Frc consts  --     2.0823                 2.3089                 1.2019
 IR Inten    --    11.2804                20.6182                11.3641
 Raman Activ --     1.8541                 6.7322                 2.2888

                    73                     74                     75
                     A                      A                      A
 Frequencies --  1168.2114              1176.8134              1188.9509
 Red. masses --     1.5540                 1.9416                 2.1958
 Frc consts  --     1.2495                 1.5842                 1.8288
 IR Inten    --     8.9865                20.8147                30.0681
 Raman Activ --     2.6945                 2.0743                 3.0286

                    76                     77                     78
                     A                      A                      A
 Frequencies --  1207.0034              1212.6728              1240.1045
 Red. masses --     1.3572                 1.2975                 1.1819
 Frc consts  --     1.1650                 1.1242                 1.0709
 IR Inten    --     6.0329                 7.7551                10.7370
 Raman Activ --     2.3016                 3.3041                 1.4086

                    79                     80                     81
                     A                      A                      A
 Frequencies --  1243.0767              1249.1560              1263.5942
 Red. masses --     1.2420                 1.3067                 1.3269
 Frc consts  --     1.1307                 1.2013                 1.2483
 IR Inten    --     4.1738                 3.2671                 3.4967
 Raman Activ --     0.9743                 0.5548                 1.5079

                    82                     83                     84
                     A                      A                      A
 Frequencies --  1282.1340              1286.8903              1290.8696
 Red. masses --     1.3597                 1.2859                 1.2352
 Frc consts  --     1.3169                 1.2547                 1.2127
 IR Inten    --    40.7338                33.5375                 3.3748
 Raman Activ --     1.8722                 1.7115                 3.6730

                    85                     86                     87
                     A                      A                      A
 Frequencies --  1293.9465              1301.9090              1303.2877
 Red. masses --     1.2753                 1.2556                 1.1776
 Frc consts  --     1.2580                 1.2539                 1.1785
 IR Inten    --    10.4317                 1.4576                18.0227
 Raman Activ --     1.5303                 1.0914                 7.0909

                    88                     89                     90
                     A                      A                      A
 Frequencies --  1315.3872              1319.2727              1324.2775
 Red. masses --     1.2573                 1.4174                 1.2059
 Frc consts  --     1.2817                 1.4535                 1.2460
 IR Inten    --    17.3284                21.8690                13.0221
 Raman Activ --     7.2558                 4.7679                 8.3834

                    91                     92                     93
                     A                      A                      A
 Frequencies --  1337.4325              1347.9264              1356.2936
 Red. masses --     1.2245                 1.2561                 1.1790
 Frc consts  --     1.2905                 1.3446                 1.2779
 IR Inten    --    38.5116                34.0238                36.8649
 Raman Activ --     9.1868                 1.3350                 1.2743

                    94                     95                     96
                     A                      A                      A
 Frequencies --  1362.6927              1372.5937              1378.0235
 Red. masses --     1.4908                 1.4296                 1.3915
 Frc consts  --     1.6311                 1.5869                 1.5569
 IR Inten    --     5.2083                10.2224                 2.7394
 Raman Activ --     6.1262                 6.1333                 4.6621

                    97                     98                     99
                     A                      A                      A
 Frequencies --  1385.9523              1394.0714              1397.1282
 Red. masses --     1.1532                 1.4427                 1.4618
 Frc consts  --     1.3051                 1.6520                 1.6812
 IR Inten    --    18.3157                 9.1783                 3.4247
 Raman Activ --     2.4179                 4.6044                 8.8650

                   100                    101                    102
                     A                      A                      A
 Frequencies --  1425.8225              1458.5086              1471.1972
 Red. masses --     1.5404                 1.3647                 1.2225
 Frc consts  --     1.8451                 1.7105                 1.5590
 IR Inten    --    35.1770                47.9904                23.5214
 Raman Activ --     0.5616                 1.2158                 3.1152

                   103                    104                    105
                     A                      A                      A
 Frequencies --  1474.0582              1474.1255              1495.7284
 Red. masses --     1.0856                 1.2072                 1.3419
 Frc consts  --     1.3898                 1.5456                 1.7687
 IR Inten    --     4.4638                 3.3326                30.5031
 Raman Activ --     3.9407                 2.8175                 1.0269

                   106                    107                    108
                     A                      A                      A
 Frequencies --  1507.0863              1524.5094              3248.1240
 Red. masses --     1.2685                 1.2418                 1.0781
 Frc consts  --     1.6975                 1.7005                 6.7015
 IR Inten    --    44.6303                37.9491                15.7708
 Raman Activ --     0.7879                 1.2971               104.8475

                   109                    110                    111
                     A                      A                      A
 Frequencies --  3255.4684              3258.2095              3263.9576
 Red. masses --     1.0572                 1.0621                 1.0795
 Frc consts  --     6.6015                 6.6429                 6.7757
 IR Inten    --    22.4035                73.2245                32.4317
 Raman Activ --    95.7692                79.8397                16.4852

                   112                    113                    114
                     A                      A                      A
 Frequencies --  3265.5223              3270.6703              3278.6907
 Red. masses --     1.0794                 1.0752                 1.0829
 Frc consts  --     6.7817                 6.7766                 6.8585
 IR Inten    --    60.0964               118.8222                 5.9615
 Raman Activ --    21.4936               199.0709               193.5661

                   115                    116                    117
                     A                      A                      A
 Frequencies --  3280.2029              3280.9397              3281.6726
 Red. masses --     1.0837                 1.0769                 1.0844
 Frc consts  --     6.8702                 6.8297                 6.8806
 IR Inten    --    35.8094                69.7453                85.8677
 Raman Activ --   129.4383               118.2098                41.5278

                   118                    119                    120
                     A                      A                      A
 Frequencies --  3288.2314              3290.4719              3295.3096
 Red. masses --     1.0835                 1.0732                 1.0869
 Frc consts  --     6.9026                 6.8464                 6.9536
 IR Inten    --    33.5755               876.7118                63.7461
 Raman Activ --    49.3101                39.2809                29.1181

                   121                    122                    123
                     A                      A                      A
 Frequencies --  3300.9917              3313.8391              3315.8998
 Red. masses --     1.0858                 1.1055                 1.1058
 Frc consts  --     6.9710                 7.1524                 7.1634
 IR Inten    --   112.1664                53.9872                53.9935
 Raman Activ --    13.6145                31.5149                38.7186

                   124                    125                    126
                     A                      A                      A
 Frequencies --  3347.7270              3361.6262              3366.7259
 Red. masses --     1.0646                 1.0660                 1.0670
 Frc consts  --     7.0296                 7.0974                 7.1255
 IR Inten    --    52.1804                37.7613                35.1591
 Raman Activ --    85.6017               129.5764               142.7629

                   127                    128                    129
                     A                      A                      A
 Frequencies --  3372.5998              3888.5382              3891.1472
 Red. masses --     1.0674                 1.0677                 1.0675
 Frc consts  --     7.1532                 9.5117                 9.5230
 IR Inten    --    59.5207                80.4363                75.6463
 Raman Activ --   138.4123                80.6087               117.7783

 - Thermochemistry -
 -------------------
 Temperature   298.150 Kelvin.  Pressure   1.00000 Atm.
 Atom     1 has atomic number  8 and mass  15.99491

 Molecular mass:   342.11621 amu.
 Principal axes and moments of inertia in atomic units:
                           1         2         3
     Eigenvalues --  4402.94080********************
           X            0.99997  -0.00815   0.00037
           Y            0.00815   0.99996  -0.00216
           Z           -0.00036   0.00216   1.00000
 This molecule is an asymmetric top.
 Rotational symmetry number  1.
 Warning -- assumption of classical behavior for rotation
           may cause significant error
 Rotational temperatures (Kelvin)      0.01967     0.00689     0.00522
 Rotational constants (GHZ):           0.40989     0.14364     0.10876
    6 imaginary frequencies ignored.
 Zero-point vibrational energy     975506.7 (Joules/Mol)
                                  233.15169 (Kcal/Mol)
 Warning -- explicit consideration of  33 degrees of freedom as
           vibrations may cause significant error
 Vibrational temperatures:     27.98    64.25   105.60   123.63   154.18
          (Kelvin)            155.35   206.65   239.70   267.29   275.04
                              325.84   374.46   393.61   427.08   435.02
                              447.38   456.75   465.58   483.38   512.52
                              529.60   573.92   601.17   616.74   624.79
                              671.33   692.12   723.96   745.31   805.74
                              832.14   856.19   889.23   895.24   983.54
                             1042.25  1048.42  1056.61  1088.37  1197.00
                             1205.35  1238.40  1240.90  1319.83  1364.96
                             1401.86  1413.29  1434.89  1440.90  1455.46
                             1467.92  1488.26  1515.38  1535.09  1538.37
                             1547.17  1559.32  1592.76  1599.05  1602.83
                             1612.08  1618.32  1633.60  1648.73  1654.61
                             1667.93  1680.79  1693.17  1710.63  1736.61
                             1744.76  1784.23  1788.51  1797.25  1818.03
                             1844.70  1851.55  1857.27  1861.70  1873.15
                             1875.14  1892.55  1898.14  1905.34  1924.26
                             1939.36  1951.40  1960.61  1974.85  1982.67
                             1994.07  2005.76  2010.15  2051.44  2098.47
                             2116.72  2120.84  2120.94  2152.02  2168.36
                             2193.43  4673.32  4683.89  4687.83  4696.10
                             4698.35  4705.76  4717.30  4719.47  4720.53
                             4721.59  4731.03  4734.25  4741.21  4749.38
                             4767.87  4770.83  4816.63  4836.62  4843.96
                             4852.41  5594.73  5598.49

 Zero-point correction=                           0.371551 (Hartree/Particle)
 Thermal correction to Energy=                    0.390837
 Thermal correction to Enthalpy=                  0.391782
 Thermal correction to Gibbs Free Energy=         0.323767
 Sum of electronic and zero-point Energies=          -1297.622215
 Sum of electronic and thermal Energies=             -1297.602929
 Sum of electronic and thermal Enthalpies=           -1297.601984
 Sum of electronic and thermal Free Energies=        -1297.669999

                     E (Thermal)             CV                S
                      KCal/Mol        Cal/Mol-Kelvin    Cal/Mol-Kelvin
 Total                  245.254             77.845            143.149
 Electronic               0.000              0.000              0.000
 Translational            0.889              2.981             43.384
 Rotational               0.889              2.981             35.172
 Vibrational            243.477             71.884             64.592
 Vibration     1          0.593              1.986              6.690
 Vibration     2          0.595              1.980              5.041
 Vibration     3          0.599              1.967              4.060
 Vibration     4          0.601              1.959              3.751
 Vibration     5          0.606              1.944              3.320
 Vibration     6          0.606              1.943              3.305
 Vibration     7          0.616              1.910              2.755
 Vibration     8          0.624              1.884              2.473
 Vibration     9          0.632              1.859              2.270
 Vibration    10          0.634              1.852              2.217
 Vibration    11          0.650              1.801              1.907
 Vibration    12          0.668              1.745              1.660
 Vibration    13          0.676              1.722              1.574
 Vibration    14          0.690              1.680              1.435
 Vibration    15          0.694              1.669              1.404
 Vibration    16          0.700              1.653              1.357
 Vibration    17          0.704              1.640              1.323
 Vibration    18          0.708              1.628              1.292
 Vibration    19          0.717              1.604              1.231
 Vibration    20          0.732              1.562              1.139
 Vibration    21          0.741              1.538              1.088
 Vibration    22          0.765              1.472              0.967
 Vibration    23          0.781              1.431              0.899
 Vibration    24          0.790              1.408              0.863
 Vibration    25          0.795              1.396              0.845
 Vibration    26          0.824              1.324              0.747
 Vibration    27          0.837              1.292              0.707
 Vibration    28          0.858              1.243              0.650
 Vibration    29          0.873              1.210              0.615
 Vibration    30          0.916              1.118              0.524
 Vibration    31          0.935              1.078              0.488
 Vibration    32          0.953              1.042              0.458
 Vibration    33          0.978              0.994              0.420

 Normal termination of Gaussian 09 at Sun Mar 27 04:30:14 2016.
