 Gaussian 09, Revision B.01,
 Gaussian 09:  EM64L-G09RevB.01 12-Aug-2010

 --------------------------------------------------
 # freq=raman b3lyp/6-31+g(2df,p) geom=connectivity
 --------------------------------------------------

 -------------
 500 10000.com
 -------------
 Symbolic Z-matrix:
 Charge =  0 Multiplicity = 1

                         Standard orientation:
 ---------------------------------------------------------------------
 Center     Atomic      Atomic             Coordinates (Angstroms)
 Number     Number       Type             X           Y           Z
 ---------------------------------------------------------------------
      1          8           0        5.109999   -0.368633   -0.662161
      2          6           0        3.906644    0.023506    0.013362
      3          6           0        3.294372    1.356029   -0.385612
      4          8           0        4.138228    2.442233    0.021976
      5          1           0        5.109601    2.204415   -0.006107
      6          6           0        1.915835    1.696861    0.157753
      7          8           0        1.436136    3.021701   -0.114593
      8          1           0        2.131099    3.688522    0.155190
      9          6           0        3.292376   -2.351704    0.679786
     10          8           0        2.697785   -3.647133    0.515241
     11          1           0        3.242083   -4.392825    0.900268
     12          6           0        2.849596   -1.069411   -0.006615
     13          8           0        1.477558   -0.707855    0.208704
     14          6           0        1.071342    0.544569   -0.362159
     15          8           0       -0.150122    0.648742    0.384023
     16          6           0       -1.402582    0.248343   -0.190915
     17          6           0       -1.679622   -1.237877   -0.035951
     18          8           0       -0.763212   -2.163153   -0.638170
     19          1           0        0.131754   -1.756087   -0.454970
     20          6           0       -3.087947   -1.653966   -0.429040
     21          8           0       -3.253319   -3.023001   -0.031953
     22          1           0       -2.424359   -3.465855   -0.375485
     23          6           0       -2.455307    2.626192    0.087016
     24          8           0       -3.471370    3.560685    0.476516
     25          1           0       -3.486484    4.404340   -0.061274
     26          6           0       -2.515355    1.130614    0.351585
     27          8           0       -3.739548    0.640578   -0.214629
     28          6           0       -4.068882   -0.687875    0.216683
     29          8           0       -5.408407   -0.961656   -0.219137
     30          1           0       -6.022956   -0.762531    0.490989
     31          1           0       -4.006379   -0.755636    1.282705
     32          1           0       -3.185599   -1.587474   -1.492498
     33          1           0       -1.612527   -1.421834    1.015980
     34          1           0       -1.337756    0.441810   -1.241281
     35          1           0       -2.559549    0.987414    1.411038
     36          1           0       -2.340320    2.736293   -0.971075
     37          1           0        5.860609   -0.244535   -0.076683
     38          1           0        3.254371   -2.146615    1.729259
     39          1           0        4.325388   -2.472998    0.428644
     40          1           0       -1.547014    2.970939    0.535405
     41          1           0        2.843082   -1.353578   -1.038170
     42          1           0        4.184273    0.135750    1.040602
     43          1           0        3.233471    1.373883   -1.453728
     44          1           0        1.962876    1.598177    1.222154
     45          1           0        0.931681    0.526669   -1.422854
 ---------------------------------------------------------------------

 SCF Done:  E(RB3LYP) =  -1297.98013720     A.U. after   14 cycles

 The electronic state is 1-A.
 Alpha  occ. eigenvalues --  -19.20396 -19.20032 -19.18607 -19.17860 -19.16929
 Alpha  occ. eigenvalues --  -19.16759 -19.15308 -19.15178 -19.15042 -19.14654
 Alpha  occ. eigenvalues --  -19.13790 -10.32019 -10.28542 -10.28404 -10.27183
 Alpha  occ. eigenvalues --  -10.26955 -10.26712 -10.25520 -10.25010 -10.24662
 Alpha  occ. eigenvalues --  -10.23253 -10.22853 -10.22759  -1.11054  -1.08118
 Alpha  occ. eigenvalues --   -1.06488  -1.05751  -1.03862  -1.03228  -1.02917
 Alpha  occ. eigenvalues --   -1.02523  -1.01111  -1.00195  -0.99611  -0.83316
 Alpha  occ. eigenvalues --   -0.82556  -0.78578  -0.77523  -0.72710  -0.69910
 Alpha  occ. eigenvalues --   -0.67946  -0.65038  -0.63942  -0.62586  -0.61101
 Alpha  occ. eigenvalues --   -0.59585  -0.58066  -0.56971  -0.55402  -0.54081
 Alpha  occ. eigenvalues --   -0.53770  -0.53471  -0.52835  -0.52052  -0.51549
 Alpha  occ. eigenvalues --   -0.51050  -0.49703  -0.48260  -0.47854  -0.47489
 Alpha  occ. eigenvalues --   -0.46127  -0.45503  -0.44364  -0.43873  -0.43292
 Alpha  occ. eigenvalues --   -0.43155  -0.42255  -0.41110  -0.40294  -0.39815
 Alpha  occ. eigenvalues --   -0.39221  -0.37675  -0.37100  -0.36806  -0.36052
 Alpha  occ. eigenvalues --   -0.35576  -0.34531  -0.34005  -0.33688  -0.33382
 Alpha  occ. eigenvalues --   -0.31785  -0.31459  -0.30987  -0.30307  -0.29724
 Alpha  occ. eigenvalues --   -0.29573  -0.28977  -0.27979  -0.27217  -0.26722
 Alpha  occ. eigenvalues --   -0.26106
 Alpha virt. eigenvalues --   -0.04498  -0.02173  -0.00945  -0.00264  -0.00011
 Alpha virt. eigenvalues --    0.00970   0.01225   0.02131   0.02732   0.03009
 Alpha virt. eigenvalues --    0.03714   0.04349   0.04847   0.05258   0.05779

 Mulliken atomic charges:
              1
     1  O   -0.423428
     2  C   -0.513558
     3  C    0.136474
     4  O   -0.513190
     5  H    0.342783
     6  C    0.109651
     7  O   -0.459676
     8  H    0.369008
     9  C   -0.536454
    10  O   -0.453745
    11  H    0.351498
    12  C    0.345382
    13  O   -0.043092
    14  C   -0.121114
    15  O   -0.019434
    16  C    0.087483
    17  C    0.135155
    18  O   -0.511946
    19  H    0.411056
    20  C   -0.218132
    21  O   -0.436151
    22  H    0.361172
    23  C   -0.406193
    24  O   -0.452065
    25  H    0.344890
    26  C   -0.099903
    27  O   -0.035386
    28  C    0.091590
    29  O   -0.450263
    30  H    0.335830
    31  H    0.126223
    32  H    0.138157
    33  H    0.128726
    34  H    0.112880
    35  H    0.121207
    36  H    0.133526
    37  H    0.350594
    38  H    0.144674
    39  H    0.160555
    40  H    0.171520
    41  H    0.122441
    42  H    0.132625
    43  H    0.135725
    44  H    0.139383
    45  H    0.153523
 Sum of Mulliken atomic charges =   0.00000

 Dipole moment (field-independent basis, Debye):
    X=              9.6883    Y=              2.0076    Z=              1.8682  Tot=             10.0689
 Quadrupole moment (field-independent basis, Debye-Ang):
   XX=           -120.1768   YY=           -139.6701   ZZ=           -137.3698
   XY=            -10.8341   XZ=              4.0920   YZ=             -8.5563

  Exact polarizability: 226.972  -0.062 207.712  -0.448  -0.844 145.540
 Approx polarizability: 270.574  -1.747 268.296   0.895   0.290 240.404

 ******    6 imaginary frequencies (negative Signs) ******

                     1                      2                      3
                     A                      A                      A
 Frequencies --  -338.6470              -328.3735              -181.3016
 Red. masses --     1.6382                 1.6150                 1.0891
 Frc consts  --     0.1107                 0.1026                 0.0211
 IR Inten    --     5.2030                 3.7401                93.7644
 Raman Activ --     0.0627                 0.0562                 1.1269

                     4                      5                      6
                     A                      A                      A
 Frequencies --   -80.1849               -76.1341               -49.2913
 Red. masses --     2.8034                 3.7981                 6.9083
 Frc consts  --     0.0106                 0.0130                 0.0099
 IR Inten    --    32.9268                19.6593                 0.1697
 Raman Activ --     0.1828                 0.1511                 0.0386

                     7                      8                      9
                     A                      A                      A
 Frequencies --    47.4214                50.5726                54.8105
 Red. masses --     6.4091                 4.9295                 3.5752
 Frc consts  --     0.0085                 0.0074                 0.0063
 IR Inten    --     4.2083                12.1893                20.2282
 Raman Activ --     0.0718                 0.1207                 0.1066

                    10                     11                     12
                     A                      A                      A
 Frequencies --    71.0238                88.4598               110.2792
 Red. masses --     6.4001                 6.2194                 6.2253
 Frc consts  --     0.0190                 0.0287                 0.0446
 IR Inten    --     0.6361                 7.5200                 4.3783
 Raman Activ --     0.0181                 0.4269                 0.6992

                    13                     14                     15
                     A                      A                      A
 Frequencies --   135.3112               159.3713               164.5594
 Red. masses --     6.3643                 6.5740                 5.6192
 Frc consts  --     0.0687                 0.0984                 0.0897
 IR Inten    --     0.6465                 1.4209                 3.7134
 Raman Activ --     0.0636                 0.4403                 0.3378

                    16                     17                     18
                     A                      A                      A
 Frequencies --   184.7142               206.3379               254.3655
 Red. masses --     6.8071                 6.9659                 4.5899
 Frc consts  --     0.1368                 0.1747                 0.1750
 IR Inten    --     1.8319                 1.7477                11.8722
 Raman Activ --     1.0435                 1.9368                 0.5067

                    19                     20                     21
                     A                      A                      A
 Frequencies --   265.8421               285.7500               292.2362
 Red. masses --     3.8402                 4.4237                 5.7143
 Frc consts  --     0.1599                 0.2128                 0.2875
 IR Inten    --    10.4880                 3.8421                 0.9430
 Raman Activ --     0.0843                 0.8001                 0.5340

                    22                     23                     24
                     A                      A                      A
 Frequencies --   310.1278               311.7571               322.7200
 Red. masses --     7.0194                 5.6335                 4.6200
 Frc consts  --     0.3978                 0.3226                 0.2835
 IR Inten    --     0.6856                 5.0676                 1.4533
 Raman Activ --     3.3300                 1.9886                 4.8323

                    25                     26                     27
                     A                      A                      A
 Frequencies --   330.1163               350.5568               357.8433
 Red. masses --     5.0244                 3.9628                 5.4102
 Frc consts  --     0.3226                 0.2869                 0.4082
 IR Inten    --     2.9351                 2.3639                 4.3497
 Raman Activ --     2.3029                 0.2172                 0.4003

                    28                     29                     30
                     A                      A                      A
 Frequencies --   399.1171               404.7408               427.9836
 Red. masses --     5.3801                 5.0490                 6.7999
 Frc consts  --     0.5049                 0.4873                 0.7338
 IR Inten    --     1.2489                 3.9829                 2.4040
 Raman Activ --     5.0484                 4.0659                 0.5954

                    31                     32                     33
                     A                      A                      A
 Frequencies --   435.4628               464.2233               477.0529
 Red. masses --     4.2600                 3.6821                 5.2041
 Frc consts  --     0.4759                 0.4675                 0.6978
 IR Inten    --     6.2115                 7.1469                10.2051
 Raman Activ --     0.8555                 1.2683                 0.6988

                    34                     35                     36
                     A                      A                      A
 Frequencies --   518.4465               529.4847               542.7970
 Red. masses --     3.7629                 4.8129                 5.2085
 Frc consts  --     0.5959                 0.7950                 0.9041
 IR Inten    --    20.6407                13.8685                 7.4293
 Raman Activ --     6.2949                 3.7844                 2.1404

                    37                     38                     39
                     A                      A                      A
 Frequencies --   570.3461               584.7109               586.5779
 Red. masses --     3.3576                 3.3158                 2.6902
 Frc consts  --     0.6435                 0.6679                 0.5454
 IR Inten    --     7.0728                19.7759                44.9023
 Raman Activ --     1.3481                 0.3351                 0.5157

                    40                     41                     42
                     A                      A                      A
 Frequencies --   611.0400               623.8539               631.0776
 Red. masses --     1.1767                 1.0848                 2.7630
 Frc consts  --     0.2589                 0.2488                 0.6483
 IR Inten    --    94.0773               103.6772                38.5454
 Raman Activ --     1.2198                 1.9871                 0.6258

                    43                     44                     45
                     A                      A                      A
 Frequencies --   658.3066               693.8979               705.9564
 Red. masses --     4.2323                 1.0954                 1.0590
 Frc consts  --     1.0806                 0.3107                 0.3110
 IR Inten    --    14.9879               145.3133                42.6737
 Raman Activ --     1.0589                 2.5335                 0.7680

                    46                     47                     48
                     A                      A                      A
 Frequencies --   767.0720               813.8306               827.3350
 Red. masses --     1.0832                 2.9640                 1.0760
 Frc consts  --     0.3755                 1.1566                 0.4339
 IR Inten    --   139.5338                 8.1073                28.2519
 Raman Activ --     1.3620                 5.6868                 0.5118

                    49                     50                     51
                     A                      A                      A
 Frequencies --   843.7031               916.4231               955.4907
 Red. masses --     2.7632                 6.1418                 5.1847
 Frc consts  --     1.1589                 3.0390                 2.7889
 IR Inten    --     8.5143               163.5888               149.2963
 Raman Activ --     2.5774                 4.9282                 0.9388

                    52                     53                     54
                     A                      A                      A
 Frequencies --   959.0706               974.0424               982.9523
 Red. masses --     6.1537                 5.1731                 5.9399
 Frc consts  --     3.3349                 2.8917                 3.3814
 IR Inten    --    18.4799               132.2671               219.8222
 Raman Activ --     5.7563                 3.2443                 1.0130

                    55                     56                     57
                     A                      A                      A
 Frequencies --   987.9293              1008.3961              1013.0190
 Red. masses --     4.2243                 5.1652                 3.2116
 Frc consts  --     2.4292                 3.0945                 1.9418
 IR Inten    --    21.5921                72.5559               195.5499
 Raman Activ --     1.0149                 2.8061                 1.6262

                    58                     59                     60
                     A                      A                      A
 Frequencies --  1026.9990              1047.7025              1055.0570
 Red. masses --     4.9531                 3.9034                 4.4481
 Frc consts  --     3.0780                 2.5245                 2.9173
 IR Inten    --   171.7770                49.1075               136.2534
 Raman Activ --     1.7491                 9.9894                 0.9946

                    61                     62                     63
                     A                      A                      A
 Frequencies --  1064.1999              1068.7442              1080.3204
 Red. masses --     4.5584                 5.4514                 5.3135
 Frc consts  --     3.0416                 3.6687                 3.6537
 IR Inten    --    64.7987               178.5778                78.3313
 Raman Activ --    17.1758                 3.1109                 8.0828

                    64                     65                     66
                     A                      A                      A
 Frequencies --  1099.4184              1105.0818              1108.3554
 Red. masses --     2.7289                 2.5904                 3.1343
 Frc consts  --     1.9434                 1.8639                 2.2685
 IR Inten    --     7.0084                11.1404                 2.6600
 Raman Activ --     2.8487                 7.2299                 2.0756

                    67                     68                     69
                     A                      A                      A
 Frequencies --  1123.1979              1127.2499              1138.4877
 Red. masses --     3.3565                 2.5317                 2.0897
 Frc consts  --     2.4949                 1.8954                 1.5959
 IR Inten    --    24.4876                95.3107                29.5301
 Raman Activ --     5.8485                 3.3503                 2.8703

                    70                     71                     72
                     A                      A                      A
 Frequencies --  1148.1096              1152.2232              1163.5698
 Red. masses --     2.2230                 2.3086                 2.1407
 Frc consts  --     1.7265                 1.8058                 1.7076
 IR Inten    --    42.1621                81.5689                14.6403
 Raman Activ --     1.0945                 2.0406                 1.9016

                    73                     74                     75
                     A                      A                      A
 Frequencies --  1170.2934              1174.4086              1187.2339
 Red. masses --     2.2622                 2.0281                 1.9246
 Frc consts  --     1.8255                 1.6481                 1.5983
 IR Inten    --     2.1580                 2.0073                10.5473
 Raman Activ --    11.0649                 1.6332                 2.5435

                    76                     77                     78
                     A                      A                      A
 Frequencies --  1202.4688              1217.7060              1222.0054
 Red. masses --     1.4255                 1.4333                 1.4200
 Frc consts  --     1.2144                 1.2522                 1.2493
 IR Inten    --    10.1478                 2.0888                 2.5137
 Raman Activ --     1.5782                 1.4943                 0.4794

                    79                     80                     81
                     A                      A                      A
 Frequencies --  1242.1265              1245.8250              1256.7211
 Red. masses --     1.2740                 1.2083                 1.2880
 Frc consts  --     1.1581                 1.1049                 1.1985
 IR Inten    --    11.0170                 5.1732                 4.2322
 Raman Activ --     3.2101                 1.8136                 0.9967

                    82                     83                     84
                     A                      A                      A
 Frequencies --  1272.9157              1283.1060              1289.4788
 Red. masses --     1.1726                 1.3369                 1.3034
 Frc consts  --     1.1194                 1.2968                 1.2769
 IR Inten    --    16.0816                30.3713                26.5861
 Raman Activ --     2.2348                 2.4836                 2.2700

                    85                     86                     87
                     A                      A                      A
 Frequencies --  1299.8136              1305.6153              1315.4293
 Red. masses --     1.2524                 1.1652                 1.2591
 Frc consts  --     1.2467                 1.1703                 1.2836
 IR Inten    --    14.8517                 9.1781                 7.3797
 Raman Activ --     9.6828                 5.0556                 8.1259

                    88                     89                     90
                     A                      A                      A
 Frequencies --  1319.0439              1321.1234              1326.6180
 Red. masses --     1.2685                 1.3450                 1.2197
 Frc consts  --     1.3003                 1.3832                 1.2648
 IR Inten    --    35.4847                14.7448                25.1334
 Raman Activ --     3.0333                 3.3372                 6.3771

                    91                     92                     93
                     A                      A                      A
 Frequencies --  1333.0345              1346.6931              1346.8251
 Red. masses --     1.4614                 1.2192                 1.2284
 Frc consts  --     1.5300                 1.3028                 1.3128
 IR Inten    --    25.5238                28.0901                28.0174
 Raman Activ --     2.9142                 3.3048                 1.5482

                    94                     95                     96
                     A                      A                      A
 Frequencies --  1347.6193              1352.5686              1368.9500
 Red. masses --     1.3115                 1.4216                 1.1929
 Frc consts  --     1.4033                 1.5323                 1.3171
 IR Inten    --    17.6714                 4.4637                11.6483
 Raman Activ --     4.1385                 6.7065                 5.4019

                    97                     98                     99
                     A                      A                      A
 Frequencies --  1378.8444              1385.9283              1398.7941
 Red. masses --     1.4122                 1.1627                 1.3766
 Frc consts  --     1.5819                 1.3158                 1.5870
 IR Inten    --    19.5206                12.6980                13.3550
 Raman Activ --     3.8123                 1.8383                 3.1914

                   100                    101                    102
                     A                      A                      A
 Frequencies --  1410.5532              1434.1353              1438.5272
 Red. masses --     1.3585                 1.3071                 1.3532
 Frc consts  --     1.5925                 1.5840                 1.6499
 IR Inten    --     8.3153                 3.5199                11.0815
 Raman Activ --     5.9649                 0.5569                 0.6539

                   103                    104                    105
                     A                      A                      A
 Frequencies --  1439.7465              1446.8917              1447.3952
 Red. masses --     1.4682                 1.1030                 1.0840
 Frc consts  --     1.7931                 1.3605                 1.3380
 IR Inten    --    69.5820                 4.4031                 1.6139
 Raman Activ --     3.7690                 4.3690                 4.8707

                   106                    107                    108
                     A                      A                      A
 Frequencies --  1484.4703              1513.2297              3237.5805
 Red. masses --     1.3954                 1.2744                 1.0749
 Frc consts  --     1.8118                 1.7193                 6.6384
 IR Inten    --    33.1135                83.2678                26.7416
 Raman Activ --     1.9722                 2.7043               140.0976

                   109                    110                    111
                     A                      A                      A
 Frequencies --  3251.5515              3254.8755              3256.3115
 Red. masses --     1.0668                 1.0686                 1.0718
 Frc consts  --     6.6453                 6.6702                 6.6959
 IR Inten    --    15.0706                47.4115                 4.5957
 Raman Activ --     9.9510                 2.1485               232.3883

                   112                    113                    114
                     A                      A                      A
 Frequencies --  3262.0870              3262.1766              3273.0329
 Red. masses --     1.0777                 1.0791                 1.0830
 Frc consts  --     6.7568                 6.7660                 6.8356
 IR Inten    --    21.5275                 4.2467                36.0796
 Raman Activ --    97.8224                14.3543                43.0344

                   115                    116                    117
                     A                      A                      A
 Frequencies --  3275.6220              3276.6567              3283.9535
 Red. masses --     1.0846                 1.0827                 1.0711
 Frc consts  --     6.8563                 6.8490                 6.8059
 IR Inten    --     4.0875                66.1662               476.8980
 Raman Activ --    76.8872                64.4097               126.2264

                   118                    119                    120
                     A                      A                      A
 Frequencies --  3286.6920              3294.0539              3301.2554
 Red. masses --     1.0834                 1.0862                 1.1005
 Frc consts  --     6.8953                 6.9441                 7.0664
 IR Inten    --    59.1908                71.9147                22.4117
 Raman Activ --    60.7930                19.7708                46.9140

                   121                    122                    123
                     A                      A                      A
 Frequencies --  3305.1193              3307.6911              3346.3158
 Red. masses --     1.0876                 1.1004                 1.0650
 Frc consts  --     6.9999                 7.0936                 7.0264
 IR Inten    --    43.4495                91.0581                49.9015
 Raman Activ --    71.4725                24.1446                43.4615

                   124                    125                    126
                     A                      A                      A
 Frequencies --  3349.6885              3351.6461              3355.0084
 Red. masses --     1.0667                 1.0691                 1.0683
 Frc consts  --     7.0518                 7.0760                 7.0850
 IR Inten    --    24.3646                69.2242                76.5325
 Raman Activ --   139.4672               147.0688               185.2325

                   127                    128                    129
                     A                      A                      A
 Frequencies --  3365.7984              3871.5471              3875.0198
 Red. masses --     1.0660                 1.0679                 1.0672
 Frc consts  --     7.1155                 9.4304                 9.4419
 IR Inten    --    76.4169                80.2865                62.2495
 Raman Activ --   104.5134                90.3190               128.7951

 - Thermochemistry -
 -------------------
 Temperature   298.150 Kelvin.  Pressure   1.00000 Atm.
 Atom     1 has atomic number  8 and mass  15.99491

 Molecular mass:   342.11621 amu.
 Principal axes and moments of inertia in atomic units:
                           1         2         3
     Eigenvalues --  4957.59670********************
           X            0.99997  -0.00789   0.00114
           Y            0.00789   0.99996  -0.00488
           Z           -0.00110   0.00489   0.99999
 This molecule is an asymmetric top.
 Rotational symmetry number  1.
 Warning -- assumption of classical behavior for rotation
           may cause significant error
 Rotational temperatures (Kelvin)      0.01747     0.00721     0.00524
 Rotational constants (GHZ):           0.36404     0.15015     0.10917
    6 imaginary frequencies ignored.
 Zero-point vibrational energy     968658.5 (Joules/Mol)
                                  231.51494 (Kcal/Mol)
 Warning -- explicit consideration of  34 degrees of freedom as
           vibrations may cause significant error
 Vibrational temperatures:     68.23    72.76    78.86   102.19   127.27
          (Kelvin)            158.67   194.68   229.30   236.76   265.76
                              296.87   365.97   382.49   411.13   420.46
                              446.20   448.55   464.32   474.96   504.37
                              514.86   574.24   582.33   615.77   626.53
                              667.91   686.37   745.93   761.81   780.96
                              820.60   841.27   843.95   879.15   897.59
                              907.98   947.16   998.36  1015.71  1103.64
                             1170.92  1190.35  1213.90  1318.53  1374.74
                             1379.89  1401.43  1414.25  1421.41  1450.86
                             1457.51  1477.62  1507.41  1517.99  1531.14
                             1537.68  1554.34  1581.82  1589.96  1594.67
                             1616.03  1621.86  1638.03  1651.87  1657.79
                             1674.12  1683.79  1689.71  1708.16  1730.08
                             1752.01  1758.19  1787.14  1792.46  1808.14
                             1831.44  1846.10  1855.27  1870.14  1878.49
                             1892.61  1897.81  1900.80  1908.71  1917.94
                             1937.59  1937.78  1938.92  1946.04  1969.61
                             1983.85  1994.04  2012.55  2029.47  2063.40
                             2069.72  2071.47  2081.75  2082.48  2135.82
                             2177.20  4658.15  4678.25  4683.03  4685.10
                             4693.41  4693.54  4709.16  4712.88  4714.37
                             4724.87  4728.81  4739.40  4749.76  4755.32
                             4759.02  4814.60  4819.45  4822.27  4827.10
                             4842.63  5570.29  5575.28

 Zero-point correction=                           0.368943 (Hartree/Particle)
 Thermal correction to Energy=                    0.388671
 Thermal correction to Enthalpy=                  0.389615
 Thermal correction to Gibbs Free Energy=         0.321108
 Sum of electronic and zero-point Energies=          -1297.611195
 Sum of electronic and thermal Energies=             -1297.591467
 Sum of electronic and thermal Enthalpies=           -1297.590522
 Sum of electronic and thermal Free Energies=        -1297.659029

                     E (Thermal)             CV                S
                      KCal/Mol        Cal/Mol-Kelvin    Cal/Mol-Kelvin
 Total                  243.894             79.261            144.184
 Electronic               0.000              0.000              0.000
 Translational            0.889              2.981             43.384
 Rotational               0.889              2.981             35.242
 Vibrational            242.117             73.299             65.558
 Vibration     1          0.595              1.979              4.922
 Vibration     2          0.595              1.977              4.795
 Vibration     3          0.596              1.976              4.636
 Vibration     4          0.598              1.968              4.125
 Vibration     5          0.601              1.957              3.694
 Vibration     6          0.606              1.941              3.264
 Vibration     7          0.613              1.918              2.869
 Vibration     8          0.621              1.892              2.557
 Vibration     9          0.623              1.886              2.497
 Vibration    10          0.631              1.861              2.280
 Vibration    11          0.641              1.831              2.076
 Vibration    12          0.665              1.755              1.700
 Vibration    13          0.672              1.736              1.623
 Vibration    14          0.684              1.700              1.499
 Vibration    15          0.688              1.688              1.461
 Vibration    16          0.699              1.654              1.362
 Vibration    17          0.700              1.651              1.353
 Vibration    18          0.708              1.630              1.296
 Vibration    19          0.713              1.615              1.260
 Vibration    20          0.727              1.574              1.164
 Vibration    21          0.733              1.559              1.131
 Vibration    22          0.765              1.472              0.966
 Vibration    23          0.770              1.460              0.945
 Vibration    24          0.789              1.409              0.865
 Vibration    25          0.796              1.393              0.841
 Vibration    26          0.822              1.329              0.754
 Vibration    27          0.834              1.301              0.718
 Vibration    28          0.873              1.209              0.614
 Vibration    29          0.884              1.185              0.588
 Vibration    30          0.898              1.155              0.559
 Vibration    31          0.926              1.095              0.504
 Vibration    32          0.942              1.064              0.477
 Vibration    33          0.944              1.060              0.473
 Vibration    34          0.970              1.008              0.431

 Normal termination of Gaussian 09 at Tue Feb 16 08:54:39 2016.
