 Gaussian 09, Revision B.01,
 Gaussian 09:  EM64L-G09RevB.01 12-Aug-2010

 --------------------------------------------------
 # freq=raman b3lyp/6-31+g(2df,p) geom=connectivity
 --------------------------------------------------

 ------------
 550 7000.com
 ------------
 Symbolic Z-matrix:
 Charge =  0 Multiplicity = 1

                         Standard orientation:
 ---------------------------------------------------------------------
 Center     Atomic      Atomic             Coordinates (Angstroms)
 Number     Number       Type             X           Y           Z
 ---------------------------------------------------------------------
      1          8           0        5.045867    0.266675    0.361637
      2          6           0        3.792252   -0.067644   -0.251141
      3          6           0        3.215587   -1.369558    0.280569
      4          8           0        4.082609   -2.429877   -0.145814
      5          1           0        4.986679   -2.007135   -0.096713
      6          6           0        1.743552   -1.600175   -0.023728
      7          8           0        0.968705   -2.483921    0.798163
      8          1           0        1.391574   -3.377486    0.648884
      9          6           0        3.523708    2.449692   -0.239796
     10          8           0        2.558120    3.511735   -0.255999
     11          1           0        3.040172    4.307503   -0.620286
     12          6           0        2.949680    1.113230    0.200873
     13          8           0        1.722352    0.830841   -0.487331
     14          6           0        0.973468   -0.290705    0.003908
     15          8           0       -0.125118   -0.348072   -0.917332
     16          6           0       -1.343557   -0.372923   -0.158626
     17          6           0       -1.767939    0.641096    0.891276
     18          8           0       -2.044897    0.007214    2.148534
     19          1           0       -2.432475    0.629176    2.829592
     20          6           0       -2.812164    1.648615    0.440042
     21          8           0       -2.182414    2.541760   -0.490221
     22          1           0       -1.227665    2.684996   -0.228618
     23          6           0       -2.561632   -2.332489   -1.107131
     24          8           0       -2.745988   -3.092067    0.096720
     25          1           0       -1.990270   -2.977824    0.741974
     26          6           0       -2.555176   -0.819886   -0.960128
     27          8           0       -3.825115   -0.399425   -0.442575
     28          6           0       -3.998492    1.013889   -0.266451
     29          8           0       -5.256303    1.405084    0.304068
     30          1           0        5.751736    0.173551   -0.282317
     31          1           0       -5.944479    1.337850   -0.361885
     32          1           0       -3.158658    2.203953    1.286471
     33          1           0       -3.995841    1.425059   -1.254293
     34          1           0       -2.457987   -0.403245   -1.940874
     35          1           0       -0.891123    1.227489    1.070821
     36          1           0       -1.163808   -1.228152    0.458766
     37          1           0       -1.629836   -2.626020   -1.543590
     38          1           0       -3.345253   -2.595066   -1.786756
     39          1           0        3.927703    2.340091   -1.224517
     40          1           0        4.315801    2.718148    0.427601
     41          1           0        2.803240    1.091074    1.260573
     42          1           0        3.879960   -0.089856   -1.317309
     43          1           0        3.295842   -1.322730    1.346527
     44          1           0        1.690622   -1.978020   -1.023394
     45          1           0        0.615800   -0.091791    0.992547
 ---------------------------------------------------------------------

 SCF Done:  E(RB3LYP) =  -1297.97980972     A.U. after   13 cycles

 The electronic state is 1-A.
 Alpha  occ. eigenvalues --  -19.18982 -19.18385 -19.17683 -19.17663 -19.16687
 Alpha  occ. eigenvalues --  -19.16658 -19.16488 -19.16370 -19.15934 -19.15263
 Alpha  occ. eigenvalues --  -19.13933 -10.30196 -10.28573 -10.26494 -10.25926
 Alpha  occ. eigenvalues --  -10.25842 -10.25645 -10.25062 -10.24676 -10.24425
 Alpha  occ. eigenvalues --  -10.24016 -10.23768 -10.22244  -1.09229  -1.07388
 Alpha  occ. eigenvalues --   -1.06474  -1.05212  -1.03845  -1.03772  -1.03258
 Alpha  occ. eigenvalues --   -1.02455  -1.02089  -1.01442  -0.99852  -0.81332
 Alpha  occ. eigenvalues --   -0.80875  -0.78320  -0.77450  -0.71849  -0.70877
 Alpha  occ. eigenvalues --   -0.67564  -0.65221  -0.63296  -0.63065  -0.61500
 Alpha  occ. eigenvalues --   -0.57604  -0.56079  -0.55759  -0.55309  -0.54906
 Alpha  occ. eigenvalues --   -0.54221  -0.53281  -0.52423  -0.51930  -0.50486
 Alpha  occ. eigenvalues --   -0.49905  -0.48907  -0.48009  -0.47644  -0.46599
 Alpha  occ. eigenvalues --   -0.45639  -0.45083  -0.44190  -0.43827  -0.43743
 Alpha  occ. eigenvalues --   -0.43034  -0.42149  -0.40842  -0.40358  -0.39355
 Alpha  occ. eigenvalues --   -0.38797  -0.38109  -0.37739  -0.36935  -0.36300
 Alpha  occ. eigenvalues --   -0.35825  -0.35259  -0.34734  -0.33329  -0.33203
 Alpha  occ. eigenvalues --   -0.32053  -0.31485  -0.30902  -0.30366  -0.29649
 Alpha  occ. eigenvalues --   -0.29321  -0.28847  -0.27862  -0.27241  -0.26498
 Alpha  occ. eigenvalues --   -0.25652
 Alpha virt. eigenvalues --   -0.03475  -0.02010  -0.00972  -0.00636   0.00212
 Alpha virt. eigenvalues --    0.01040   0.01320   0.02081   0.02593   0.03041
 Alpha virt. eigenvalues --    0.03977   0.04380   0.04850   0.05641   0.06054

 Mulliken atomic charges:
              1
     1  O   -0.454962
     2  C   -0.255182
     3  C    0.243268
     4  O   -0.468552
     5  H    0.334813
     6  C   -0.100431
     7  O   -0.442889
     8  H    0.357062
     9  C   -0.362905
    10  O   -0.426952
    11  H    0.335912
    12  C    0.031586
    13  O   -0.065208
    14  C   -0.012224
    15  O    0.010632
    16  C   -0.556034
    17  C    0.293055
    18  O   -0.462466
    19  H    0.350979
    20  C    0.016082
    21  O   -0.370475
    22  H    0.340762
    23  C   -0.445570
    24  O   -0.385326
    25  H    0.343526
    26  C    0.249531
    27  O   -0.082079
    28  C   -0.085420
    29  O   -0.440296
    30  H    0.344890
    31  H    0.341702
    32  H    0.112993
    33  H    0.118982
    34  H    0.115193
    35  H    0.073320
    36  H    0.098286
    37  H    0.153824
    38  H    0.150021
    39  H    0.134946
    40  H    0.164727
    41  H    0.123006
    42  H    0.148416
    43  H    0.136792
    44  H    0.147849
    45  H    0.144819
 Sum of Mulliken atomic charges =   0.00000

 Dipole moment (field-independent basis, Debye):
    X=              6.9487    Y=              2.4492    Z=             -1.0354  Tot=              7.4401
 Quadrupole moment (field-independent basis, Debye-Ang):
   XX=           -119.2890   YY=           -141.1200   ZZ=           -134.7047
   XY=             -0.5717   XZ=             -0.9592   YZ=              3.7970

  Exact polarizability: 220.370  -1.253 191.832  -1.956   1.008 154.376
 Approx polarizability: 268.274   1.346 254.139  -5.470  -0.470 247.401

 ******    6 imaginary frequencies (negative Signs) ******

                     1                      2                      3
                     A                      A                      A
 Frequencies --  -233.2930              -103.7208               -90.2708
 Red. masses --     1.8570                 2.2087                 4.1715
 Frc consts  --     0.0595                 0.0140                 0.0200
 IR Inten    --     2.7474                 1.5926                 4.2335
 Raman Activ --     0.1292                 0.1084                 0.0385

                     4                      5                      6
                     A                      A                      A
 Frequencies --   -69.6188               -54.4614               -39.9597
 Red. masses --     4.7985                 5.3494                 6.2294
 Frc consts  --     0.0137                 0.0093                 0.0059
 IR Inten    --     3.2138                 5.2418                 1.9383
 Raman Activ --     0.1732                 0.0267                 0.1858

                     7                      8                      9
                     A                      A                      A
 Frequencies --     4.5864                28.4603                53.0276
 Red. masses --     5.4413                 6.3016                 5.7580
 Frc consts  --     0.0001                 0.0030                 0.0095
 IR Inten    --     2.8509                 0.0474                 0.7604
 Raman Activ --     0.1658                 0.1574                 0.1153

                    10                     11                     12
                     A                      A                      A
 Frequencies --    81.3565               106.0608               117.7650
 Red. masses --     5.7517                 2.0202                 2.5753
 Frc consts  --     0.0224                 0.0134                 0.0210
 IR Inten    --    10.8349                33.8127                87.1746
 Raman Activ --     0.1602                 1.1007                 0.3637

                    13                     14                     15
                     A                      A                      A
 Frequencies --   130.7184               135.5982               168.0010
 Red. masses --     1.9496                 6.2194                 2.8477
 Frc consts  --     0.0196                 0.0674                 0.0474
 IR Inten    --    37.2685                 0.1948                14.3195
 Raman Activ --     0.4641                 0.5087                 0.6779

                    16                     17                     18
                     A                      A                      A
 Frequencies --   172.5838               205.1704               229.0664
 Red. masses --     5.7285                 5.9780                 5.3751
 Frc consts  --     0.1005                 0.1483                 0.1662
 IR Inten    --     4.7334                 6.3072                 0.3384
 Raman Activ --     0.4474                 0.4041                 0.5393

                    19                     20                     21
                     A                      A                      A
 Frequencies --   241.8444               277.5981               299.8704
 Red. masses --     6.1967                 6.1729                 3.1157
 Frc consts  --     0.2135                 0.2803                 0.1651
 IR Inten    --     7.7028                 5.8120                11.3578
 Raman Activ --     2.3884                 0.5716                 0.4362

                    22                     23                     24
                     A                      A                      A
 Frequencies --   308.0522               325.4074               346.9639
 Red. masses --     4.9548                 5.3409                 5.7628
 Frc consts  --     0.2770                 0.3332                 0.4087
 IR Inten    --     1.2321                 6.1095                 2.8505
 Raman Activ --     1.1863                 1.4416                 1.6993

                    25                     26                     27
                     A                      A                      A
 Frequencies --   355.7508               360.8370               413.4117
 Red. masses --     5.1267                 5.4462                 5.6084
 Frc consts  --     0.3823                 0.4178                 0.5648
 IR Inten    --     3.7125                 3.4124                 3.8784
 Raman Activ --     3.7630                 0.8649                 3.2668

                    28                     29                     30
                     A                      A                      A
 Frequencies --   417.8932               441.3603               460.6627
 Red. masses --     5.4658                 3.5348                 5.1611
 Frc consts  --     0.5624                 0.4057                 0.6453
 IR Inten    --    11.9606                 7.1598                 9.4437
 Raman Activ --     1.0553                 0.3086                 0.7609

                    31                     32                     33
                     A                      A                      A
 Frequencies --   472.1360               495.1404               499.3002
 Red. masses --     4.7179                 5.2322                 4.8025
 Frc consts  --     0.6196                 0.7558                 0.7054
 IR Inten    --     5.1651                30.3981                12.2263
 Raman Activ --     2.3207                 4.1437                 1.5148

                    34                     35                     36
                     A                      A                      A
 Frequencies --   530.0608               545.0283               551.3698
 Red. masses --     4.8146                 4.7069                 5.2725
 Frc consts  --     0.7970                 0.8238                 0.9444
 IR Inten    --    14.4896                18.9402                 9.9918
 Raman Activ --     1.3870                 3.0886                 8.0801

                    37                     38                     39
                     A                      A                      A
 Frequencies --   591.8629               618.5465               643.3392
 Red. masses --     3.5107                 4.8174                 3.9637
 Frc consts  --     0.7246                 1.0860                 0.9666
 IR Inten    --     3.8102                 1.8975                36.2370
 Raman Activ --     0.5401                 0.8027                 0.8312

                    40                     41                     42
                     A                      A                      A
 Frequencies --   663.9002               683.3127               692.1467
 Red. masses --     1.1431                 3.1210                 1.0775
 Frc consts  --     0.2969                 0.8586                 0.3041
 IR Inten    --    82.7074                19.2639               108.8315
 Raman Activ --     1.3360                 1.2709                 1.2652

                    43                     44                     45
                     A                      A                      A
 Frequencies --   714.4928               717.0659               737.3872
 Red. masses --     1.1012                 1.0947                 1.0917
 Frc consts  --     0.3312                 0.3316                 0.3497
 IR Inten    --    52.5786               130.8246                79.1324
 Raman Activ --     0.7654                 2.6383                 1.2396

                    46                     47                     48
                     A                      A                      A
 Frequencies --   764.7032               768.4747               844.2013
 Red. masses --     3.6577                 1.1754                 2.8237
 Frc consts  --     1.2602                 0.4090                 1.1857
 IR Inten    --    20.2818               120.2961                12.9639
 Raman Activ --     1.6501                 0.9091                 0.5645

                    49                     50                     51
                     A                      A                      A
 Frequencies --   849.4009               864.7061               918.4734
 Red. masses --     2.7655                 2.5088                 3.4050
 Frc consts  --     1.1756                 1.1053                 1.6924
 IR Inten    --    14.7350                 6.2976                51.3442
 Raman Activ --     4.0832                 6.9874                 5.2936

                    52                     53                     54
                     A                      A                      A
 Frequencies --   961.0187               972.1148               979.5842
 Red. masses --     4.7378                 3.8546                 4.5992
 Frc consts  --     2.5781                 2.1462                 2.6002
 IR Inten    --   308.6334               108.0647                70.3416
 Raman Activ --     3.7037                 2.2813                 0.8186

                    55                     56                     57
                     A                      A                      A
 Frequencies --   994.6590              1000.7345              1021.2431
 Red. masses --     5.1179                 4.4847                 6.6543
 Frc consts  --     2.9832                 2.6462                 4.0889
 IR Inten    --   142.1668                24.4793               189.1050
 Raman Activ --     2.3431                 4.4466                 2.0514

                    58                     59                     60
                     A                      A                      A
 Frequencies --  1030.0328              1030.5042              1051.7361
 Red. masses --     5.2257                 5.1222                 2.8106
 Frc consts  --     3.2666                 3.2048                 1.8317
 IR Inten    --   141.4091               106.7568               105.3385
 Raman Activ --     1.5465                 3.3595                 8.2143

                    61                     62                     63
                     A                      A                      A
 Frequencies --  1058.2396              1064.6527              1073.7460
 Red. masses --     3.4289                 6.0392                 3.3941
 Frc consts  --     2.2624                 4.0332                 2.3056
 IR Inten    --   127.2572                36.2833                69.3050
 Raman Activ --     1.4730                11.3625                 2.5087

                    64                     65                     66
                     A                      A                      A
 Frequencies --  1078.5098              1090.0908              1095.9578
 Red. masses --     3.4530                 3.7753                 2.6178
 Frc consts  --     2.3664                 2.6432                 1.8526
 IR Inten    --    10.4358                96.5109                43.3550
 Raman Activ --     5.9660                 2.6260                 1.5767

                    67                     68                     69
                     A                      A                      A
 Frequencies --  1104.8401              1110.1615              1119.9500
 Red. masses --     3.1315                 2.4959                 3.4485
 Frc consts  --     2.2522                 1.8124                 2.5485
 IR Inten    --    27.4208                 6.2873                26.5930
 Raman Activ --     3.2541                 4.4559                 4.1644

                    70                     71                     72
                     A                      A                      A
 Frequencies --  1127.7864              1145.8310              1149.7552
 Red. masses --     2.0442                 2.3951                 2.4527
 Frc consts  --     1.5319                 1.8528                 1.9103
 IR Inten    --     8.6945                15.6044                52.6527
 Raman Activ --     2.7356                 3.8055                 3.5753

                    73                     74                     75
                     A                      A                      A
 Frequencies --  1160.0914              1195.3744              1198.4971
 Red. masses --     1.4811                 1.3593                 1.3125
 Frc consts  --     1.1744                 1.1444                 1.1108
 IR Inten    --    13.8891                 6.9414                 2.0135
 Raman Activ --     0.7387                 1.3835                 2.3138

                    76                     77                     78
                     A                      A                      A
 Frequencies --  1218.4581              1229.0464              1234.0834
 Red. masses --     1.6125                 1.4009                 1.2750
 Frc consts  --     1.4105                 1.2468                 1.1441
 IR Inten    --    11.7572                27.2090                15.5022
 Raman Activ --     1.1858                 1.3697                 1.3762

                    79                     80                     81
                     A                      A                      A
 Frequencies --  1246.5732              1261.4579              1272.5533
 Red. masses --     1.2312                 1.5389                 1.2642
 Frc consts  --     1.1272                 1.4428                 1.2062
 IR Inten    --     2.7199                40.6275                14.4473
 Raman Activ --     3.3073                 2.7662                 3.4088

                    82                     83                     84
                     A                      A                      A
 Frequencies --  1275.4219              1277.0096              1278.1950
 Red. masses --     1.2239                 1.2416                 1.2506
 Frc consts  --     1.1730                 1.1929                 1.2039
 IR Inten    --     8.5948                12.7117                54.8442
 Raman Activ --     2.3381                 1.0118                 2.2629

                    85                     86                     87
                     A                      A                      A
 Frequencies --  1292.2061              1301.2612              1311.4297
 Red. masses --     1.3238                 1.2818                 1.3497
 Frc consts  --     1.3024                 1.2788                 1.3677
 IR Inten    --     6.9494                 7.0331                 5.1586
 Raman Activ --     6.4201                 3.5063                 2.2617

                    88                     89                     90
                     A                      A                      A
 Frequencies --  1314.2098              1326.0900              1330.4147
 Red. masses --     1.3569                 1.3596                 1.2883
 Frc consts  --     1.3808                 1.4087                 1.3435
 IR Inten    --     9.9122                28.9083                 2.2881
 Raman Activ --     1.9253                 4.6472                 1.1980

                    91                     92                     93
                     A                      A                      A
 Frequencies --  1339.2156              1347.0920              1362.2868
 Red. masses --     1.2805                 1.3157                 1.2983
 Frc consts  --     1.3531                 1.4067                 1.4196
 IR Inten    --     4.0528                55.5572                 7.8758
 Raman Activ --     1.6744                 6.1166                 1.9724

                    94                     95                     96
                     A                      A                      A
 Frequencies --  1364.3390              1369.0943              1375.7034
 Red. masses --     1.5062                 1.3510                 1.2182
 Frc consts  --     1.6519                 1.4920                 1.3584
 IR Inten    --     7.7625                13.4732                 9.0615
 Raman Activ --     4.8999                 1.8525                 5.2278

                    97                     98                     99
                     A                      A                      A
 Frequencies --  1399.3283              1406.1450              1422.0906
 Red. masses --     1.3917                 1.3049                 1.3428
 Frc consts  --     1.6056                 1.5201                 1.6000
 IR Inten    --    96.7639                 7.2134                18.4586
 Raman Activ --     2.0640                 2.0654                 1.7272

                   100                    101                    102
                     A                      A                      A
 Frequencies --  1433.9441              1443.0851              1458.0443
 Red. masses --     1.2438                 1.1757                 1.0682
 Frc consts  --     1.5068                 1.4425                 1.3380
 IR Inten    --    18.9926                19.6508                 1.9824
 Raman Activ --     2.1589                 7.3010                 5.0924

                   103                    104                    105
                     A                      A                      A
 Frequencies --  1460.5795              1471.5960              1474.5890
 Red. masses --     1.3233                 1.3769                 1.2376
 Frc consts  --     1.6633                 1.7568                 1.5855
 IR Inten    --    34.1344                10.5919                 7.1787
 Raman Activ --     5.3009                 0.9357                 5.1424

                   106                    107                    108
                     A                      A                      A
 Frequencies --  1477.4655              1484.1359              3239.5025
 Red. masses --     1.4163                 1.3803                 1.0816
 Frc consts  --     1.8215                 1.7913                 6.6878
 IR Inten    --    48.0300                82.6064                54.7979
 Raman Activ --     0.5564                 2.0619                72.5030

                   109                    110                    111
                     A                      A                      A
 Frequencies --  3244.6527              3255.4164              3259.9739
 Red. masses --     1.0795                 1.0568                 1.0834
 Frc consts  --     6.6958                 6.5987                 6.7839
 IR Inten    --     6.9293                40.2341                39.2659
 Raman Activ --    45.6107                86.5549                76.9039

                   112                    113                    114
                     A                      A                      A
 Frequencies --  3261.9891              3265.4864              3274.1928
 Red. masses --     1.0700                 1.0811                 1.0725
 Frc consts  --     6.7083                 6.7925                 6.7739
 IR Inten    --     2.6836                 3.4322                48.9365
 Raman Activ --    55.1115                86.3509               182.9792

                   115                    116                    117
                     A                      A                      A
 Frequencies --  3274.9680              3279.6541              3280.4579
 Red. masses --     1.0849                 1.0844                 1.0843
 Frc consts  --     6.8557                 6.8724                 6.8752
 IR Inten    --    52.1815                 1.5397                 4.8452
 Raman Activ --    66.0167               129.8688                15.7918

                   118                    119                    120
                     A                      A                      A
 Frequencies --  3291.3658              3300.3532              3315.3404
 Red. masses --     1.0857                 1.0889                 1.1049
 Frc consts  --     6.9299                 6.9880                 7.1552
 IR Inten    --    16.4085                26.2654                45.6257
 Raman Activ --    44.8974                 9.0805                52.8673

                   121                    122                    123
                     A                      A                      A
 Frequencies --  3324.6932              3348.5152              3351.3851
 Red. masses --     1.1012                 1.0665                 1.0717
 Frc consts  --     7.1717                 7.0453                 7.0919
 IR Inten    --    37.1187                37.0505                11.1575
 Raman Activ --   104.4557                68.7367                21.3861

                   124                    125                    126
                     A                      A                      A
 Frequencies --  3352.3913              3354.6890              3366.5987
 Red. masses --     1.0672                 1.0651                 1.0658
 Frc consts  --     7.0662                 7.0623                 7.1172
 IR Inten    --    42.6212                37.2972                44.8845
 Raman Activ --   131.9675                83.6847               100.9195

                   127                    128                    129
                     A                      A                      A
 Frequencies --  3368.6762              3865.2164              3874.2072
 Red. masses --     1.0664                 1.0675                 1.0671
 Frc consts  --     7.1302                 9.3962                 9.4366
 IR Inten    --    37.5370                48.4300                73.7896
 Raman Activ --   163.3353               118.0096               125.6898

 - Thermochemistry -
 -------------------
 Temperature   298.150 Kelvin.  Pressure   1.00000 Atm.
 Atom     1 has atomic number  8 and mass  15.99491

 Molecular mass:   342.11621 amu.
 Principal axes and moments of inertia in atomic units:
                           1         2         3
     Eigenvalues --  4446.28089********************
           X            0.99999   0.00483   0.00085
           Y           -0.00484   0.99997   0.00565
           Z           -0.00082  -0.00566   0.99998
 This molecule is an asymmetric top.
 Rotational symmetry number  1.
 Warning -- assumption of classical behavior for rotation
           may cause significant error
 Rotational temperatures (Kelvin)      0.01948     0.00734     0.00581
 Rotational constants (GHZ):           0.40590     0.15286     0.12103
    6 imaginary frequencies ignored.
 Zero-point vibrational energy     972977.1 (Joules/Mol)
                                  232.54712 (Kcal/Mol)
 Warning -- explicit consideration of  32 degrees of freedom as
           vibrations may cause significant error
 Vibrational temperatures:      6.60    40.95    76.29   117.05   152.60
          (Kelvin)            169.44   188.07   195.10   241.72   248.31
                              295.19   329.57   347.96   399.40   431.45
                              443.22   468.19   499.20   511.85   519.16
                              594.81   601.25   635.02   662.79   679.30
                              712.40   718.38   762.64   784.17   793.30
                              851.56   889.95   925.62   955.20   983.13
                              995.84  1027.99  1031.70  1060.93  1100.24
                             1105.66  1214.62  1222.10  1244.12  1321.48
                             1382.69  1398.65  1409.40  1431.09  1439.83
                             1469.34  1481.99  1482.66  1513.21  1522.57
                             1531.80  1544.88  1551.73  1568.40  1576.84
                             1589.62  1597.27  1611.36  1622.63  1648.59
                             1654.24  1669.11  1719.88  1724.37  1753.09
                             1768.32  1775.57  1793.54  1814.95  1830.92
                             1835.05  1837.33  1839.04  1859.19  1872.22
                             1886.85  1890.85  1907.95  1914.17  1926.83
                             1938.16  1960.02  1962.98  1969.82  1979.33
                             2013.32  2023.13  2046.07  2063.12  2076.28
                             2097.80  2101.45  2117.30  2121.60  2125.74
                             2135.34  4660.92  4668.33  4683.81  4690.37
                             4693.27  4698.30  4710.83  4711.94  4718.68
                             4719.84  4735.54  4748.47  4770.03  4783.49
                             4817.76  4821.89  4823.34  4826.64  4843.78
                             4846.77  5561.18  5574.11

 Zero-point correction=                           0.370587 (Hartree/Particle)
 Thermal correction to Energy=                    0.390059
 Thermal correction to Enthalpy=                  0.391003
 Thermal correction to Gibbs Free Energy=         0.320577
 Sum of electronic and zero-point Energies=          -1297.609222
 Sum of electronic and thermal Energies=             -1297.589751
 Sum of electronic and thermal Enthalpies=           -1297.588807
 Sum of electronic and thermal Free Energies=        -1297.659232

                     E (Thermal)             CV                S
                      KCal/Mol        Cal/Mol-Kelvin    Cal/Mol-Kelvin
 Total                  244.765             78.031            148.223
 Electronic               0.000              0.000              0.000
 Translational            0.889              2.981             43.384
 Rotational               0.889              2.981             35.014
 Vibrational            242.988             72.069             69.825
 Vibration     1          0.593              1.987              9.560
 Vibration     2          0.593              1.984              5.934
 Vibration     3          0.596              1.976              4.701
 Vibration     4          0.600              1.962              3.858
 Vibration     5          0.605              1.944              3.340
 Vibration     6          0.608              1.935              3.137
 Vibration     7          0.612              1.923              2.935
 Vibration     8          0.613              1.918              2.865
 Vibration     9          0.625              1.882              2.458
 Vibration    10          0.626              1.876              2.407
 Vibration    11          0.640              1.833              2.086
 Vibration    12          0.652              1.797              1.886
 Vibration    13          0.658              1.776              1.789
 Vibration    14          0.679              1.715              1.548
 Vibration    15          0.692              1.674              1.418
 Vibration    16          0.698              1.658              1.373
 Vibration    17          0.710              1.625              1.283
 Vibration    18          0.725              1.581              1.180
 Vibration    19          0.731              1.563              1.141
 Vibration    20          0.735              1.553              1.118
 Vibration    21          0.777              1.441              0.915
 Vibration    22          0.781              1.431              0.899
 Vibration    23          0.801              1.380              0.822
 Vibration    24          0.818              1.337              0.764
 Vibration    25          0.829              1.312              0.732
 Vibration    26          0.851              1.261              0.670
 Vibration    27          0.855              1.252              0.660
 Vibration    28          0.885              1.183              0.587
 Vibration    29          0.900              1.151              0.555
 Vibration    30          0.907              1.137              0.541
 Vibration    31          0.949              1.049              0.464
 Vibration    32          0.978              0.993              0.419

 Normal termination of Gaussian 09 at Tue Feb 16 13:46:42 2016.
