 Gaussian 09, Revision B.01,
 Gaussian 09:  EM64L-G09RevB.01 12-Aug-2010

 -------------------------------------------------
 # freq=raman b3lyp/6-31+g(2d,p) geom=connectivity
 -------------------------------------------------

 -----------------
 450 8444/8444.com
 -----------------
 Symbolic Z-matrix:
 Charge =  0 Multiplicity = 1

                         Standard orientation:
 ---------------------------------------------------------------------
 Center     Atomic      Atomic             Coordinates (Angstroms)
 Number     Number       Type             X           Y           Z
 ---------------------------------------------------------------------
      1          8           0       -5.067484    0.437331   -0.698315
      2          6           0       -3.972809    0.025904    0.134334
      3          6           0       -3.237454   -1.204776   -0.369011
      4          8           0       -4.149650   -2.296380   -0.175820
      5          1           0       -5.086682   -1.951247   -0.136995
      6          6           0       -1.864067   -1.637726    0.117629
      7          8           0       -1.148433   -2.469741   -0.807305
      8          1           0       -1.606961   -3.354763   -0.723443
      9          6           0       -3.430402    2.522466    0.521833
     10          8           0       -2.383315    3.390855    0.066256
     11          1           0       -2.378462    4.345855    0.363591
     12          6           0       -2.918558    1.104242    0.326805
     13          8           0       -1.713492    0.620611    0.938217
     14          6           0       -1.003029   -0.388964    0.206577
     15          8           0        0.243440   -0.407648    0.918821
     16          6           0        1.407212   -0.343364    0.081997
     17          6           0        1.733779    1.135564   -0.045821
     18          8           0        1.062757    1.729921   -1.166722
     19          1           0        0.074531    1.688070   -1.025475
     20          6           0        3.169429    1.386146   -0.476435
     21          8           0        3.369327    2.729213   -0.013285
     22          1           0        2.693123    3.242018   -0.542312
     23          6           0        2.303595   -2.570365    0.823122
     24          8           0        2.138080   -3.262138   -0.423282
     25          1           0        1.193478   -3.157097   -0.734472
     26          6           0        2.605979   -1.090737    0.644435
     27          8           0        3.860349   -0.851774   -0.009148
     28          6           0        4.240427    0.520436    0.166286
     29          8           0        5.528290    0.671593   -0.449110
     30          1           0        6.188884    0.211632    0.074008
     31          1           0        4.309562    0.745698    1.210019
     32          1           0        3.249557    1.347307   -1.542724
     33          1           0        1.507687    1.661439    0.858192
     34          1           0        1.168679   -0.736562   -0.884128
     35          1           0        2.732649   -0.707937    1.635555
     36          1           0        3.108365   -3.023161    1.363696
     37          1           0        1.404645   -2.671246    1.394621
     38          1           0       -5.892321    0.122881   -0.321002
     39          1           0       -3.632701    2.701588    1.557154
     40          1           0       -4.315684    2.677322   -0.058853
     41          1           0       -2.569044    1.196144   -0.680317
     42          1           0       -4.374253   -0.209322    1.097875
     43          1           0       -3.140934   -1.073289   -1.426506
     44          1           0       -1.935085   -2.112554    1.073869
     45          1           0       -0.822612   -0.030482   -0.785311
 ---------------------------------------------------------------------

 SCF Done:  E(RB3LYP) =  -1297.95899953     A.U. after   13 cycles

 The electronic state is 1-A.
 Alpha  occ. eigenvalues --  -19.20049 -19.19410 -19.17892 -19.17811 -19.17702
 Alpha  occ. eigenvalues --  -19.16662 -19.16335 -19.15979 -19.15577 -19.14310
 Alpha  occ. eigenvalues --  -19.14129 -10.31404 -10.28644 -10.27532 -10.27099
 Alpha  occ. eigenvalues --  -10.26352 -10.26106 -10.25648 -10.24238 -10.23998
 Alpha  occ. eigenvalues --  -10.23521 -10.23052 -10.22720  -1.09872  -1.07939
 Alpha  occ. eigenvalues --   -1.07078  -1.06266  -1.04530  -1.04190  -1.03556
 Alpha  occ. eigenvalues --   -1.02646  -1.01311  -1.00686  -1.00179  -0.82370
 Alpha  occ. eigenvalues --   -0.81425  -0.78600  -0.76825  -0.72905  -0.70088
 Alpha  occ. eigenvalues --   -0.67957  -0.65811  -0.64097  -0.62407  -0.61460
 Alpha  occ. eigenvalues --   -0.59329  -0.57675  -0.56727  -0.55281  -0.54740
 Alpha  occ. eigenvalues --   -0.54527  -0.53246  -0.53001  -0.51965  -0.51030
 Alpha  occ. eigenvalues --   -0.50297  -0.49135  -0.48764  -0.48091  -0.46683
 Alpha  occ. eigenvalues --   -0.45829  -0.45708  -0.45183  -0.44257  -0.43489
 Alpha  occ. eigenvalues --   -0.43027  -0.42901  -0.41601  -0.40248  -0.39406
 Alpha  occ. eigenvalues --   -0.38610  -0.37877  -0.36887  -0.36519  -0.36111
 Alpha  occ. eigenvalues --   -0.35743  -0.35522  -0.34999  -0.33490  -0.33338
 Alpha  occ. eigenvalues --   -0.32794  -0.31516  -0.31177  -0.30500  -0.30325
 Alpha  occ. eigenvalues --   -0.29799  -0.29719  -0.28409  -0.27817  -0.26593
 Alpha  occ. eigenvalues --   -0.25441
 Alpha virt. eigenvalues --   -0.04502  -0.01924  -0.01261   0.00061   0.00646
 Alpha virt. eigenvalues --    0.00880   0.01504   0.02438   0.02697   0.03374
 Alpha virt. eigenvalues --    0.03649   0.04167   0.04760   0.05005   0.05410

 Mulliken atomic charges:
              1
     1  O   -0.515423
     2  C   -0.482457
     3  C    0.607118
     4  O   -0.575356
     5  H    0.313443
     6  C   -0.007811
     7  O   -0.552444
     8  H    0.353663
     9  C   -0.350832
    10  O   -0.497723
    11  H    0.340568
    12  C    0.500857
    13  O   -0.281691
    14  C   -0.138566
    15  O   -0.252423
    16  C    0.091607
    17  C    0.040003
    18  O   -0.560864
    19  H    0.338658
    20  C    0.106037
    21  O   -0.521893
    22  H    0.342979
    23  C   -0.479835
    24  O   -0.476968
    25  H    0.344282
    26  C    0.450738
    27  O   -0.293484
    28  C    0.141173
    29  O   -0.526337
    30  H    0.325179
    31  H    0.125635
    32  H    0.146467
    33  H    0.155264
    34  H    0.137713
    35  H    0.102366
    36  H    0.141813
    37  H    0.154547
    38  H    0.329824
    39  H    0.138323
    40  H    0.175014
    41  H    0.100514
    42  H    0.125218
    43  H    0.139085
    44  H    0.143557
    45  H    0.102466
 Sum of Mulliken atomic charges =   0.00000

 Dipole moment (field-independent basis, Debye):
    X=             -8.5564    Y=              0.5085    Z=              3.3047  Tot=              9.1865
 Quadrupole moment (field-independent basis, Debye-Ang):
   XX=           -119.9943   YY=           -138.2610   ZZ=           -142.1837
   XY=             -5.7666   XZ=              4.9486   YZ=             -1.0522

  Exact polarizability: 228.591   0.681 194.452   0.599  -0.614 146.447
 Approx polarizability: 275.175  -1.257 253.689  -1.517   0.463 241.971

 ******    8 imaginary frequencies (negative Signs) ******

                     1                      2                      3
                     A                      A                      A
 Frequencies --  -215.6986              -208.8455              -189.3838
 Red. masses --     1.0790                 1.3117                 2.1148
 Frc consts  --     0.0296                 0.0337                 0.0447
 IR Inten    --   107.6953                85.9728                10.3007
 Raman Activ --     1.5840                 0.4375                 0.2389

                     4                      5                      6
                     A                      A                      A
 Frequencies --   -99.1289               -94.0199               -61.3516
 Red. masses --     5.7820                 6.1153                 2.9504
 Frc consts  --     0.0335                 0.0318                 0.0065
 IR Inten    --     0.4928                 1.6363                 2.4611
 Raman Activ --     0.0709                 0.0154                 0.1721

                     7                      8                      9
                     A                      A                      A
 Frequencies --   -45.8276               -11.2979                19.2606
 Red. masses --     4.9041                 7.1392                 5.9984
 Frc consts  --     0.0061                 0.0005                 0.0013
 IR Inten    --     4.0664                 0.4354                 1.4182
 Raman Activ --     0.0716                 0.0761                 0.0377

                    10                     11                     12
                     A                      A                      A
 Frequencies --    34.8074                54.8777               104.5753
 Red. masses --     5.6186                 5.9658                 4.9899
 Frc consts  --     0.0040                 0.0106                 0.0322
 IR Inten    --     0.6887                 1.9481                 3.5922
 Raman Activ --     0.0956                 0.0769                 0.3769

                    13                     14                     15
                     A                      A                      A
 Frequencies --   134.9003               144.4227               175.6349
 Red. masses --     5.6239                 5.1194                 4.6337
 Frc consts  --     0.0603                 0.0629                 0.0842
 IR Inten    --     0.8147                 0.1916                 0.2097
 Raman Activ --     0.2981                 0.9987                 0.1595

                    16                     17                     18
                     A                      A                      A
 Frequencies --   207.7867               220.4583               234.0773
 Red. masses --     4.6416                 5.0306                 6.0579
 Frc consts  --     0.1181                 0.1441                 0.1956
 IR Inten    --     2.4138                 4.7633                 2.9678
 Raman Activ --     1.0680                 0.1201                 1.6187

                    19                     20                     21
                     A                      A                      A
 Frequencies --   257.4501               279.7024               288.8816
 Red. masses --     4.9744                 5.4090                 5.0536
 Frc consts  --     0.1943                 0.2493                 0.2485
 IR Inten    --     0.8482                 1.3873                 5.0246
 Raman Activ --     1.3966                 0.5727                 0.7777

                    22                     23                     24
                     A                      A                      A
 Frequencies --   296.1501               300.4301               325.0593
 Red. masses --     6.0553                 5.3574                 5.0833
 Frc consts  --     0.3129                 0.2849                 0.3165
 IR Inten    --     2.7806                 2.9119                 4.6430
 Raman Activ --     0.2000                 0.0393                 1.0738

                    25                     26                     27
                     A                      A                      A
 Frequencies --   345.2225               365.4639               393.4693
 Red. masses --     7.4829                 4.7093                 4.7683
 Frc consts  --     0.5254                 0.3706                 0.4349
 IR Inten    --     5.4944                 9.9468                13.9920
 Raman Activ --     0.9704                 3.9616                 5.6851

                    28                     29                     30
                     A                      A                      A
 Frequencies --   418.2381               422.6729               454.5970
 Red. masses --     5.0925                 5.6363                 5.8196
 Frc consts  --     0.5248                 0.5933                 0.7086
 IR Inten    --     4.4982                 0.8367                 2.3919
 Raman Activ --     1.7754                 3.7343                 1.2704

                    31                     32                     33
                     A                      A                      A
 Frequencies --   459.5922               493.9832               528.3443
 Red. masses --     4.4084                 4.3320                 4.2609
 Frc consts  --     0.5486                 0.6228                 0.7008
 IR Inten    --     6.0784                 1.4153                 0.2220
 Raman Activ --     1.2611                 3.0479                 1.0437

                    34                     35                     36
                     A                      A                      A
 Frequencies --   534.0769               547.1456               561.9409
 Red. masses --     4.6727                 4.1118                 4.3058
 Frc consts  --     0.7853                 0.7252                 0.8011
 IR Inten    --    28.3828                28.7066                14.6473
 Raman Activ --     3.5899                 6.0930                 0.3887

                    37                     38                     39
                     A                      A                      A
 Frequencies --   587.6191               600.1674               616.8657
 Red. masses --     4.1515                 3.0072                 2.5074
 Frc consts  --     0.8446                 0.6382                 0.5622
 IR Inten    --    11.1783                15.3540                40.9073
 Raman Activ --     1.7260                 0.2198                 1.1322

                    40                     41                     42
                     A                      A                      A
 Frequencies --   638.1220               646.3496               656.6464
 Red. masses --     1.1426                 1.4146                 2.7530
 Frc consts  --     0.2741                 0.3482                 0.6994
 IR Inten    --   168.1888                34.4814                 4.1263
 Raman Activ --     1.0763                 1.6349                 0.8534

                    43                     44                     45
                     A                      A                      A
 Frequencies --   720.7025               743.0154               757.3046
 Red. masses --     3.2453                 1.1321                 1.1061
 Frc consts  --     0.9931                 0.3682                 0.3737
 IR Inten    --    10.0950                65.2389                63.3166
 Raman Activ --     0.6026                 1.3565                 1.9460

                    46                     47                     48
                     A                      A                      A
 Frequencies --   789.3295               798.8976               825.4930
 Red. masses --     1.1019                 1.0997                 2.7023
 Frc consts  --     0.4045                 0.4135                 1.0850
 IR Inten    --   118.7091               122.4031                 1.6316
 Raman Activ --     1.5016                 0.7292                 4.4781

                    49                     50                     51
                     A                      A                      A
 Frequencies --   852.6339               892.6957               938.5028
 Red. masses --     2.5610                 2.7397                 7.4472
 Frc consts  --     1.0969                 1.2864                 3.8647
 IR Inten    --     1.1280                33.8632               280.7098
 Raman Activ --     3.0351                 2.1334                 2.9872

                    52                     53                     54
                     A                      A                      A
 Frequencies --   974.1860               985.7110               988.9816
 Red. masses --     7.6539                 5.8618                 4.2039
 Frc consts  --     4.2797                 3.3557                 2.4226
 IR Inten    --   231.2321                60.0207                38.3302
 Raman Activ --     3.2639                 2.7119                 2.3677

                    55                     56                     57
                     A                      A                      A
 Frequencies --  1002.5980              1011.9581              1023.3392
 Red. masses --     6.0181                 4.7050                 5.2657
 Frc consts  --     3.5642                 2.8388                 3.2490
 IR Inten    --   287.2734               120.2537               143.2177
 Raman Activ --     0.9363                 4.3375                 7.7319

                    58                     59                     60
                     A                      A                      A
 Frequencies --  1029.2235              1032.5750              1039.7676
 Red. masses --     3.5043                 4.4840                 4.5117
 Frc consts  --     2.1871                 2.8168                 2.8739
 IR Inten    --    63.1874                98.9846               118.5884
 Raman Activ --     1.1203                 3.6286                 5.7880

                    61                     62                     63
                     A                      A                      A
 Frequencies --  1045.6539              1055.5495              1065.8330
 Red. masses --     3.9560                 5.0572                 4.3851
 Frc consts  --     2.5485                 3.3198                 2.9350
 IR Inten    --    42.2130                31.3639                50.3650
 Raman Activ --     6.4541                 7.4790                 1.1592

                    64                     65                     66
                     A                      A                      A
 Frequencies --  1082.4617              1102.3821              1106.5547
 Red. masses --     4.1363                 3.1472                 2.9125
 Frc consts  --     2.8555                 2.2534                 2.1012
 IR Inten    --    21.7043                50.4895                21.2002
 Raman Activ --     6.2497                 2.6132                 5.9233

                    67                     68                     69
                     A                      A                      A
 Frequencies --  1110.1139              1123.0136              1131.1817
 Red. masses --     2.5231                 3.1224                 2.0307
 Frc consts  --     1.8320                 2.3201                 1.5310
 IR Inten    --    14.9496                96.4847                35.3044
 Raman Activ --     2.0510                 5.7645                 1.5086

                    70                     71                     72
                     A                      A                      A
 Frequencies --  1132.6184              1139.4700              1156.6628
 Red. masses --     2.0744                 2.3446                 1.5538
 Frc consts  --     1.5679                 1.7936                 1.2248
 IR Inten    --    14.5516                17.4232                17.4573
 Raman Activ --     3.1752                 2.7606                 2.6731

                    73                     74                     75
                     A                      A                      A
 Frequencies --  1170.6936              1175.6824              1188.7411
 Red. masses --     1.2491                 1.9854                 1.7133
 Frc consts  --     1.0087                 1.6169                 1.4264
 IR Inten    --     6.5199                 0.5635                 3.8289
 Raman Activ --     1.4462                 2.5364                 3.1320

                    76                     77                     78
                     A                      A                      A
 Frequencies --  1205.5247              1208.2601              1213.3035
 Red. masses --     1.3591                 1.4430                 1.2712
 Frc consts  --     1.1637                 1.2412                 1.1026
 IR Inten    --     9.8614                 7.3308                 5.9054
 Raman Activ --     2.4456                 2.5586                 0.5712

                    79                     80                     81
                     A                      A                      A
 Frequencies --  1235.9473              1247.2720              1252.4182
 Red. masses --     1.2466                 1.3086                 1.3165
 Frc consts  --     1.1220                 1.1995                 1.2167
 IR Inten    --     4.1504                13.8219                 6.9103
 Raman Activ --     1.7972                 2.1865                 1.4689

                    82                     83                     84
                     A                      A                      A
 Frequencies --  1259.2624              1268.1456              1278.6567
 Red. masses --     1.1686                 1.2060                 1.2236
 Frc consts  --     1.0918                 1.1427                 1.1787
 IR Inten    --     6.4384                12.5848                33.2991
 Raman Activ --     0.6818                 2.5120                 2.8227

                    85                     86                     87
                     A                      A                      A
 Frequencies --  1279.5942              1287.4028              1299.4985
 Red. masses --     1.2741                 1.2454                 1.3937
 Frc consts  --     1.2291                 1.2161                 1.3867
 IR Inten    --     5.0326                42.2885                12.0942
 Raman Activ --     1.1174                 2.9996                 3.5390

                    88                     89                     90
                     A                      A                      A
 Frequencies --  1307.4863              1323.8493              1340.4000
 Red. masses --     1.3909                 1.3980                 1.3929
 Frc consts  --     1.4010                 1.4435                 1.4745
 IR Inten    --    20.2061                20.6413                14.2452
 Raman Activ --     4.5820                 6.9482                 1.4678

                    91                     92                     93
                     A                      A                      A
 Frequencies --  1344.0296              1348.8395              1362.5179
 Red. masses --     1.3403                 1.4047                 1.5223
 Frc consts  --     1.4265                 1.5058                 1.6651
 IR Inten    --    27.0827                21.2364                15.0060
 Raman Activ --     3.9536                 1.8709                 6.1199

                    94                     95                     96
                     A                      A                      A
 Frequencies --  1367.0061              1373.2934              1389.2769
 Red. masses --     1.2783                 1.3382                 1.4159
 Frc consts  --     1.4074                 1.4869                 1.6101
 IR Inten    --    13.7084                 6.1494                17.4587
 Raman Activ --     1.8716                 2.5754                 2.5132

                    97                     98                     99
                     A                      A                      A
 Frequencies --  1391.1557              1398.5778              1399.1688
 Red. masses --     1.4463                 1.3154                 1.4747
 Frc consts  --     1.6492                 1.5160                 1.7010
 IR Inten    --    16.9693                 4.5299                 4.2465
 Raman Activ --     2.4391                 3.8363                 9.2257

                   100                    101                    102
                     A                      A                      A
 Frequencies --  1441.3525              1443.0647              1446.0969
 Red. masses --     1.3932                 1.3191                 1.1230
 Frc consts  --     1.7053                 1.6185                 1.3837
 IR Inten    --    31.7266                43.3342                16.1386
 Raman Activ --     6.8849                 3.2894                 8.4597

                   103                    104                    105
                     A                      A                      A
 Frequencies --  1446.8094              1456.3132              1469.3241
 Red. masses --     1.1302                 1.1278                 1.1071
 Frc consts  --     1.3939                 1.4093                 1.4082
 IR Inten    --    18.6775                35.6772                 7.9072
 Raman Activ --     3.8780                 4.9226                 2.0766

                   106                    107                    108
                     A                      A                      A
 Frequencies --  1484.6035              1497.0914              3223.8254
 Red. masses --     1.3589                 1.4459                 1.0778
 Frc consts  --     1.7647                 1.9093                 6.5997
 IR Inten    --    76.4655                66.5640                 9.8090
 Raman Activ --     2.0799                 2.2894                93.0943

                   109                    110                    111
                     A                      A                      A
 Frequencies --  3252.9971              3263.5727              3267.5602
 Red. masses --     1.0783                 1.0617                 1.0770
 Frc consts  --     6.7232                 6.6623                 6.7751
 IR Inten    --    10.6617                18.2010                30.8953
 Raman Activ --    30.8009                34.6296               116.7383

                   112                    113                    114
                     A                      A                      A
 Frequencies --  3272.7530              3274.6273              3278.7484
 Red. masses --     1.0828                 1.0613                 1.0843
 Frc consts  --     6.8330                 6.7054                 6.8676
 IR Inten    --     1.2297                32.8829                35.6961
 Raman Activ --    46.5415               168.4713               120.4637

                   115                    116                    117
                     A                      A                      A
 Frequencies --  3281.9700              3291.1737              3299.4779
 Red. masses --     1.0842                 1.0854                 1.0862
 Frc consts  --     6.8807                 6.9266                 6.9671
 IR Inten    --    43.0698                 7.9242                 2.2310
 Raman Activ --    20.5840                50.1712                51.9334

                   118                    119                    120
                     A                      A                      A
 Frequencies --  3304.7291              3307.9247              3330.2753
 Red. masses --     1.0865                 1.0864                 1.1030
 Frc consts  --     6.9911                 7.0043                 7.2075
 IR Inten    --    24.5020                38.4145                56.0444
 Raman Activ --    20.9677                 3.3930               100.6547

                   121                    122                    123
                     A                      A                      A
 Frequencies --  3331.8735              3359.9169              3365.4598
 Red. masses --     1.1081                 1.0731                 1.0648
 Frc consts  --     7.2480                 7.1376                 7.1059
 IR Inten    --    18.8293                54.4856                36.3752
 Raman Activ --    55.7887                71.0297                59.3870

                   124                    125                    126
                     A                      A                      A
 Frequencies --  3368.5602              3368.8397              3373.4164
 Red. masses --     1.0683                 1.0667                 1.0657
 Frc consts  --     7.1423                 7.1328                 7.1451
 IR Inten    --    49.2088                22.4506                44.9590
 Raman Activ --   217.3344                86.6552               102.7392

                   127                    128                    129
                     A                      A                      A
 Frequencies --  3376.1734              3882.1553              3889.6533
 Red. masses --     1.0659                 1.0678                 1.0668
 Frc consts  --     7.1583                 9.4819                 9.5091
 IR Inten    --    46.0234                69.7831                63.8651
 Raman Activ --   158.4029               104.4848               135.4170

 - Thermochemistry -
 -------------------
 Temperature   298.150 Kelvin.  Pressure   1.00000 Atm.
 Atom     1 has atomic number  8 and mass  15.99491

 Molecular mass:   342.11621 amu.
 Principal axes and moments of inertia in atomic units:
                           1         2         3
     Eigenvalues --  4410.73846********************
           X            0.99998  -0.00523   0.00211
           Y            0.00524   0.99998  -0.00274
           Z           -0.00210   0.00275   0.99999
 This molecule is an asymmetric top.
 Rotational symmetry number  1.
 Warning -- assumption of classical behavior for rotation
           may cause significant error
 Rotational temperatures (Kelvin)      0.01964     0.00722     0.00557
 Rotational constants (GHZ):           0.40917     0.15036     0.11602
    8 imaginary frequencies ignored.
 Zero-point vibrational energy     972406.9 (Joules/Mol)
                                  232.41084 (Kcal/Mol)
 Warning -- explicit consideration of  31 degrees of freedom as
           vibrations may cause significant error
 Vibrational temperatures:     27.71    50.08    78.96   150.46   194.09
          (Kelvin)            207.79   252.70   298.96   317.19   336.78
                              370.41   402.43   415.64   426.09   432.25
                              467.69   496.70   525.82   566.11   601.75
                              608.13   654.06   661.25   710.73   760.17
                              768.42   787.22   808.51   845.45   863.51
                              887.53   918.11   929.95   944.77  1036.93
                             1069.03  1089.59  1135.67  1149.43  1187.70
                             1226.75  1284.39  1350.29  1401.63  1418.22
                             1422.92  1442.51  1455.98  1472.36  1480.82
                             1485.64  1495.99  1504.46  1518.70  1533.49
                             1557.42  1586.08  1592.08  1597.20  1615.76
                             1627.52  1629.58  1639.44  1664.18  1684.36
                             1691.54  1710.33  1734.48  1738.41  1745.67
                             1778.25  1794.54  1801.95  1811.80  1824.58
                             1839.70  1841.05  1852.28  1869.69  1881.18
                             1904.72  1928.53  1933.76  1940.68  1960.36
                             1966.81  1975.86  1998.86  2001.56  2012.24
                             2013.09  2073.78  2076.25  2080.61  2081.63
                             2095.31  2114.03  2136.01  2153.98  4638.36
                             4680.33  4695.55  4701.28  4708.76  4711.45
                             4717.38  4722.02  4735.26  4747.21  4754.76
                             4759.36  4791.52  4793.82  4834.16  4842.14
                             4846.60  4847.00  4853.59  4857.55  5585.55
                             5596.34

 Zero-point correction=                           0.370370 (Hartree/Particle)
 Thermal correction to Energy=                    0.388315
 Thermal correction to Enthalpy=                  0.389259
 Thermal correction to Gibbs Free Energy=         0.323853
 Sum of electronic and zero-point Energies=          -1297.588629
 Sum of electronic and thermal Energies=             -1297.570685
 Sum of electronic and thermal Enthalpies=           -1297.569741
 Sum of electronic and thermal Free Energies=        -1297.635147

                     E (Thermal)             CV                S
                      KCal/Mol        Cal/Mol-Kelvin    Cal/Mol-Kelvin
 Total                  243.671             74.278            137.659
 Electronic               0.000              0.000              0.000
 Translational            0.889              2.981             43.384
 Rotational               0.889              2.981             35.064
 Vibrational            241.894             68.316             59.210
 Vibration     1          0.593              1.986              6.709
 Vibration     2          0.594              1.983              5.535
 Vibration     3          0.596              1.976              4.633
 Vibration     4          0.605              1.946              3.367
 Vibration     5          0.613              1.918              2.875
 Vibration     6          0.616              1.909              2.744
 Vibration     7          0.628              1.872              2.374
 Vibration     8          0.641              1.829              2.063
 Vibration     9          0.647              1.810              1.955
 Vibration    10          0.654              1.789              1.847
 Vibration    11          0.667              1.750              1.679
 Vibration    12          0.680              1.711              1.535
 Vibration    13          0.685              1.694              1.481
 Vibration    14          0.690              1.681              1.439
 Vibration    15          0.693              1.673              1.415
 Vibration    16          0.709              1.625              1.285
 Vibration    17          0.724              1.585              1.188
 Vibration    18          0.739              1.543              1.099
 Vibration    19          0.761              1.484              0.987
 Vibration    20          0.781              1.431              0.898
 Vibration    21          0.785              1.421              0.883
 Vibration    22          0.813              1.351              0.782
 Vibration    23          0.818              1.340              0.767
 Vibration    24          0.850              1.263              0.673
 Vibration    25          0.883              1.187              0.591
 Vibration    26          0.889              1.175              0.578
 Vibration    27          0.902              1.146              0.550
 Vibration    28          0.918              1.114              0.520
 Vibration    29          0.945              1.058              0.471
 Vibration    30          0.958              1.031              0.449
 Vibration    31          0.977              0.996              0.422

 Normal termination of Gaussian 09 at Mon Mar 28 11:55:47 2016.
