 Gaussian 09, Revision B.01,
 Gaussian 09:  EM64L-G09RevB.01 12-Aug-2010

 -------------------------------------------------
 # freq=raman b3lyp/6-31+g(2d,p) geom=connectivity
 -------------------------------------------------

 -----------------
 310 8469/8469.com
 -----------------
 Symbolic Z-matrix:
 Charge =  0 Multiplicity = 1

                         Standard orientation:
 ---------------------------------------------------------------------
 Center     Atomic      Atomic             Coordinates (Angstroms)
 Number     Number       Type             X           Y           Z
 ---------------------------------------------------------------------
      1          8           0        5.105750   -0.413280   -0.219389
      2          6           0        3.770155   -0.144163    0.232222
      3          6           0        3.265690    1.216549   -0.221047
      4          8           0        4.160506    2.314217    0.012911
      5          1           0        5.059991    1.906396   -0.140655
      6          6           0        1.870813    1.545320    0.285117
      7          8           0        1.419505    2.696020   -0.443694
      8          1           0        0.590877    2.948899    0.056046
      9          6           0        3.040457   -2.606729   -0.045575
     10          8           0        4.202361   -3.232076   -0.609642
     11          1           0        4.201846   -4.228710   -0.537112
     12          6           0        2.710265   -1.133158   -0.223298
     13          8           0        1.494001   -0.810757    0.466681
     14          6           0        0.865110    0.423145    0.088287
     15          8           0       -0.324448    0.540019    0.881999
     16          6           0       -1.525544    0.227972    0.160546
     17          6           0       -2.054336   -1.160471    0.477925
     18          8           0       -1.038951   -2.150759    0.263571
     19          1           0       -0.155739   -1.723238    0.459651
     20          6           0       -3.401155   -1.559279   -0.104577
     21          8           0       -4.047575   -2.771259    0.309314
     22          1           0       -4.742322   -2.962529   -0.384710
     23          6           0       -2.297060    2.653201   -0.352593
     24          8           0       -1.246004    3.457945    0.201636
     25          1           0       -1.500788    4.424640    0.175163
     26          6           0       -2.626548    1.275622    0.199206
     27          8           0       -3.796888    0.816044   -0.493354
     28          6           0       -4.344620   -0.381467    0.076264
     29          8           0       -5.470970   -0.640927   -0.774899
     30          1           0       -6.233665   -0.865419   -0.236847
     31          1           0       -3.194406    3.232823   -0.291688
     32          1           0       -2.072317    2.524210   -1.390741
     33          1           0       -2.896820    1.405853    1.226286
     34          1           0       -1.225003    0.183243   -0.865405
     35          1           0       -2.212060   -1.153401    1.536213
     36          1           0       -3.244787   -1.659357   -1.158348
     37          1           0       -4.636070   -0.247177    1.097011
     38          1           0        5.660937   -0.628394    0.533666
     39          1           0        2.196397   -3.151129   -0.414479
     40          1           0        3.087479   -2.779742    1.009297
     41          1           0        2.543831   -0.966601   -1.267069
     42          1           0        3.782840   -0.149133    1.302136
     43          1           0        3.175022    1.144505   -1.284762
     44          1           0        1.924439    1.788495    1.325737
     45          1           0        0.592664    0.375008   -0.945326
 ---------------------------------------------------------------------

 SCF Done:  E(RB3LYP) =  -1297.97621249     A.U. after   13 cycles

 The electronic state is 1-A.
 Alpha  occ. eigenvalues --  -19.19444 -19.18728 -19.18586 -19.18355 -19.17771
 Alpha  occ. eigenvalues --  -19.17225 -19.16644 -19.16004 -19.15104 -19.14244
 Alpha  occ. eigenvalues --  -19.14062 -10.30937 -10.30607 -10.26477 -10.26177
 Alpha  occ. eigenvalues --  -10.26061 -10.25408 -10.25183 -10.24875 -10.24541
 Alpha  occ. eigenvalues --  -10.24437 -10.24355 -10.24035  -1.10460  -1.09358
 Alpha  occ. eigenvalues --   -1.05639  -1.05024  -1.04506  -1.03799  -1.02710
 Alpha  occ. eigenvalues --   -1.02478  -1.02220  -1.00933  -1.00605  -0.82256
 Alpha  occ. eigenvalues --   -0.80556  -0.79668  -0.78438  -0.72243  -0.70430
 Alpha  occ. eigenvalues --   -0.67249  -0.65427  -0.63584  -0.62713  -0.61491
 Alpha  occ. eigenvalues --   -0.60343  -0.56602  -0.55614  -0.55233  -0.54981
 Alpha  occ. eigenvalues --   -0.54119  -0.53239  -0.53093  -0.52042  -0.51389
 Alpha  occ. eigenvalues --   -0.50829  -0.50055  -0.49672  -0.48855  -0.46656
 Alpha  occ. eigenvalues --   -0.46258  -0.45243  -0.44860  -0.43779  -0.43374
 Alpha  occ. eigenvalues --   -0.42856  -0.42600  -0.41205  -0.40085  -0.39155
 Alpha  occ. eigenvalues --   -0.38792  -0.38028  -0.37543  -0.36036  -0.35959
 Alpha  occ. eigenvalues --   -0.35292  -0.34986  -0.34788  -0.34481  -0.33967
 Alpha  occ. eigenvalues --   -0.32763  -0.31607  -0.31449  -0.30731  -0.30482
 Alpha  occ. eigenvalues --   -0.29304  -0.28427  -0.28236  -0.27753  -0.26775
 Alpha  occ. eigenvalues --   -0.26571
 Alpha virt. eigenvalues --   -0.02177  -0.02019  -0.01566  -0.00231   0.00175
 Alpha virt. eigenvalues --    0.01072   0.01950   0.02382   0.02808   0.03644
 Alpha virt. eigenvalues --    0.03891   0.04069   0.04709   0.05413   0.05515

 Mulliken atomic charges:
              1
     1  O   -0.544750
     2  C   -0.111769
     3  C    0.196718
     4  O   -0.562668
     5  H    0.346791
     6  C   -0.087824
     7  O   -0.513336
     8  H    0.381210
     9  C   -0.174078
    10  O   -0.525652
    11  H    0.344248
    12  C    0.314150
    13  O   -0.290751
    14  C    0.012506
    15  O   -0.206504
    16  C    0.421043
    17  C    0.251063
    18  O   -0.569849
    19  H    0.388063
    20  C   -0.094874
    21  O   -0.539038
    22  H    0.344917
    23  C   -0.308258
    24  O   -0.561137
    25  H    0.360983
    26  C   -0.202731
    27  O   -0.225867
    28  C    0.256776
    29  O   -0.558560
    30  H    0.337337
    31  H    0.145599
    32  H    0.159220
    33  H    0.114403
    34  H    0.099167
    35  H    0.111132
    36  H    0.130732
    37  H    0.134109
    38  H    0.340929
    39  H    0.152055
    40  H    0.139907
    41  H    0.109312
    42  H    0.112627
    43  H    0.114539
    44  H    0.132569
    45  H    0.125538
 Sum of Mulliken atomic charges =   0.00000

 Dipole moment (field-independent basis, Debye):
    X=             -2.4960    Y=             -0.0291    Z=              1.9094  Tot=              3.1428
 Quadrupole moment (field-independent basis, Debye-Ang):
   XX=           -119.3277   YY=           -133.8596   ZZ=           -141.0437
   XY=            -18.6077   XZ=              4.6786   YZ=              4.0703

  Exact polarizability: 233.430   1.848 198.721   0.882   0.503 144.129
 Approx polarizability: 273.775   1.239 257.916   0.272   1.319 241.165

 ******    7 imaginary frequencies (negative Signs) ******

                     1                      2                      3
                     A                      A                      A
 Frequencies --  -326.6589              -283.9552              -254.2963
 Red. masses --     1.7276                 1.6977                 1.1790
 Frc consts  --     0.1086                 0.0807                 0.0449
 IR Inten    --     6.2788                 2.7362               124.9241
 Raman Activ --     0.0622                 0.0272                 1.1379

                     4                      5                      6
                     A                      A                      A
 Frequencies --  -194.7058               -73.2653               -53.5514
 Red. masses --     1.2105                 6.7648                 6.3355
 Frc consts  --     0.0270                 0.0214                 0.0107
 IR Inten    --    94.8895                 1.1576                 0.1568
 Raman Activ --     0.6477                 0.0642                 0.0168

                     7                      8                      9
                     A                      A                      A
 Frequencies --   -10.8648                56.1757                76.2962
 Red. masses --     6.4728                 6.9936                 6.1694
 Frc consts  --     0.0005                 0.0130                 0.0212
 IR Inten    --     0.4394                 0.2801                 2.8811
 Raman Activ --     0.0663                 0.0539                 0.1322

                    10                     11                     12
                     A                      A                      A
 Frequencies --    84.2510               104.9253               121.6575
 Red. masses --     6.7114                 5.5274                 5.5015
 Frc consts  --     0.0281                 0.0359                 0.0480
 IR Inten    --     0.4538                 6.5299                 0.6190
 Raman Activ --     0.1786                 0.0541                 0.0426

                    13                     14                     15
                     A                      A                      A
 Frequencies --   141.8536               172.0476               180.1645
 Red. masses --     6.2801                 6.5525                 7.0799
 Frc consts  --     0.0745                 0.1143                 0.1354
 IR Inten    --     4.1501                 1.2430                 2.0652
 Raman Activ --     0.4196                 0.2556                 1.5436

                    16                     17                     18
                     A                      A                      A
 Frequencies --   194.7853               224.5741               263.0863
 Red. masses --     6.0444                 6.3017                 4.1764
 Frc consts  --     0.1351                 0.1873                 0.1703
 IR Inten    --     1.8287                 3.3537                15.1932
 Raman Activ --     0.8696                 1.4385                 0.3653

                    19                     20                     21
                     A                      A                      A
 Frequencies --   270.2294               281.8196               298.4752
 Red. masses --     4.7042                 5.4435                 6.2400
 Frc consts  --     0.2024                 0.2547                 0.3275
 IR Inten    --     3.2076                 0.6520                 7.7777
 Raman Activ --     0.2079                 0.0783                 0.6343

                    22                     23                     24
                     A                      A                      A
 Frequencies --   300.7447               313.2380               314.9268
 Red. masses --     4.2787                 6.1105                 6.1371
 Frc consts  --     0.2280                 0.3532                 0.3586
 IR Inten    --     1.8108                 2.5417                 4.0475
 Raman Activ --     0.4401                 1.5926                 5.6092

                    25                     26                     27
                     A                      A                      A
 Frequencies --   334.1459               353.1727               373.2226
 Red. masses --     6.7709                 5.0827                 8.1400
 Frc consts  --     0.4454                 0.3735                 0.6681
 IR Inten    --     3.5091                 4.2437                 2.2520
 Raman Activ --     3.3624                 0.4467                 2.3987

                    28                     29                     30
                     A                      A                      A
 Frequencies --   402.1938               411.9775               419.1333
 Red. masses --     4.1811                 5.2024                 5.2400
 Frc consts  --     0.3985                 0.5202                 0.5424
 IR Inten    --    24.7513                 4.9492                 2.7040
 Raman Activ --     1.5858                 5.4029                 1.3205

                    31                     32                     33
                     A                      A                      A
 Frequencies --   430.9699               475.0546               479.9538
 Red. masses --     5.0424                 5.2304                 4.0467
 Frc consts  --     0.5518                 0.6955                 0.5492
 IR Inten    --     3.5687                 2.1564                18.3039
 Raman Activ --     2.9132                 2.5239                 1.4397

                    34                     35                     36
                     A                      A                      A
 Frequencies --   491.8019               533.2683               565.2479
 Red. masses --     4.2228                 3.1310                 4.3925
 Frc consts  --     0.6018                 0.5246                 0.8269
 IR Inten    --     9.1589                 7.0078                11.0069
 Raman Activ --     4.5645                 3.4570                 1.6538

                    37                     38                     39
                     A                      A                      A
 Frequencies --   570.3887               587.7181               606.6569
 Red. masses --     2.7880                 6.1181                 5.8111
 Frc consts  --     0.5344                 1.2451                 1.2601
 IR Inten    --    36.8153                 2.6477                17.4864
 Raman Activ --     0.2979                 0.6301                 1.0765

                    40                     41                     42
                     A                      A                      A
 Frequencies --   627.6210               633.6851               658.6801
 Red. masses --     1.1750                 3.0347                 1.2573
 Frc consts  --     0.2727                 0.7180                 0.3214
 IR Inten    --    93.6405                36.4224                98.0462
 Raman Activ --     1.5713                 1.2801                 1.0535

                    43                     44                     45
                     A                      A                      A
 Frequencies --   669.9843               746.0689               755.8276
 Red. masses --     3.2973                 1.0873                 1.0750
 Frc consts  --     0.8721                 0.3566                 0.3618
 IR Inten    --    28.0047                81.5202                85.8313
 Raman Activ --     1.2728                 1.2297                 1.4098

                    46                     47                     48
                     A                      A                      A
 Frequencies --   797.3089               840.7696               849.5994
 Red. masses --     1.0777                 1.4200                 1.8505
 Frc consts  --     0.4036                 0.5914                 0.7870
 IR Inten    --    71.6995                41.1804                 2.1850
 Raman Activ --     1.2949                 1.1698                 0.7652

                    49                     50                     51
                     A                      A                      A
 Frequencies --   862.5749               925.0943               949.5608
 Red. masses --     1.3122                 5.5583                 4.8974
 Frc consts  --     0.5752                 2.8026                 2.6017
 IR Inten    --    40.8091               202.2282                28.0901
 Raman Activ --     1.1106                 3.6912                 0.2579

                    52                     53                     54
                     A                      A                      A
 Frequencies --   974.3093               982.7203               986.9147
 Red. masses --     7.2649                 5.2421                 5.6037
 Frc consts  --     4.0633                 2.9827                 3.2158
 IR Inten    --    55.4482               401.3929               287.0020
 Raman Activ --     1.5772                 1.6040                 1.6300

                    55                     56                     57
                     A                      A                      A
 Frequencies --   992.3589              1006.8110              1018.8597
 Red. masses --     5.8301                 6.6804                 6.0479
 Frc consts  --     3.3827                 3.9898                 3.6990
 IR Inten    --     8.2048                19.8976                85.8327
 Raman Activ --     2.1952                 1.5057                 3.2558

                    58                     59                     60
                     A                      A                      A
 Frequencies --  1030.8628              1050.4059              1060.6522
 Red. masses --     7.0273                 6.3912                 5.9343
 Frc consts  --     4.3999                 4.1548                 3.9334
 IR Inten    --   310.2233               208.1697                 8.6283
 Raman Activ --     1.9376                 2.2678                 5.0911

                    61                     62                     63
                     A                      A                      A
 Frequencies --  1064.8467              1070.6580              1078.4465
 Red. masses --     3.9534                 5.8801                 3.4896
 Frc consts  --     2.6412                 3.9713                 2.3913
 IR Inten    --    11.7063                36.0370                33.9600
 Raman Activ --     2.9758                 3.9927                20.8155

                    64                     65                     66
                     A                      A                      A
 Frequencies --  1099.6335              1111.5516              1122.8319
 Red. masses --     3.2583                 2.7786                 3.2072
 Frc consts  --     2.3213                 2.0227                 2.3824
 IR Inten    --    73.9180                 8.1039                69.6501
 Raman Activ --     5.9546                 4.5576                 3.6848

                    67                     68                     69
                     A                      A                      A
 Frequencies --  1127.3508              1128.5361              1136.7067
 Red. masses --     2.5412                 2.3537                 3.1747
 Frc consts  --     1.9028                 1.7661                 2.4168
 IR Inten    --    10.0295                18.1271                40.2277
 Raman Activ --     4.6686                 2.1522                 4.3118

                    70                     71                     72
                     A                      A                      A
 Frequencies --  1149.5319              1161.8291              1165.1398
 Red. masses --     2.4934                 1.7136                 1.6365
 Frc consts  --     1.9413                 1.3629                 1.3089
 IR Inten    --    45.5704                 7.4114                 4.7686
 Raman Activ --     8.8012                 1.6931                 2.1298

                    73                     74                     75
                     A                      A                      A
 Frequencies --  1173.8666              1188.1962              1201.4107
 Red. masses --     2.3431                 1.7106                 2.0700
 Frc consts  --     1.9023                 1.4229                 1.7604
 IR Inten    --     8.9718                 6.6219                 6.3611
 Raman Activ --     2.8208                 1.6449                 2.4532

                    76                     77                     78
                     A                      A                      A
 Frequencies --  1211.5878              1222.9626              1234.9319
 Red. masses --     1.3203                 1.2534                 1.3959
 Frc consts  --     1.1419                 1.1045                 1.2542
 IR Inten    --    25.6587                13.8171                 2.0483
 Raman Activ --     3.8598                 3.1309                 1.0142

                    79                     80                     81
                     A                      A                      A
 Frequencies --  1243.2904              1270.1604              1277.1684
 Red. masses --     1.3180                 1.2468                 1.2372
 Frc consts  --     1.2003                 1.1851                 1.1890
 IR Inten    --     4.9899                 7.9038                13.0832
 Raman Activ --     1.1045                 2.4287                 2.6970

                    82                     83                     84
                     A                      A                      A
 Frequencies --  1280.9728              1291.8908              1296.2770
 Red. masses --     1.2653                 1.3864                 1.2381
 Frc consts  --     1.2232                 1.3633                 1.2258
 IR Inten    --    15.4717                31.3590                17.0803
 Raman Activ --     0.7590                 0.7778                 2.4852

                    85                     86                     87
                     A                      A                      A
 Frequencies --  1306.3027              1311.9624              1313.8432
 Red. masses --     1.1560                 1.2976                 1.3689
 Frc consts  --     1.1622                 1.3159                 1.3922
 IR Inten    --     1.9104                18.3930                11.6671
 Raman Activ --     3.4500                 3.9650                 1.6664

                    88                     89                     90
                     A                      A                      A
 Frequencies --  1318.8645              1334.3152              1342.5771
 Red. masses --     1.2386                 1.2913                 1.2606
 Frc consts  --     1.2694                 1.3546                 1.3388
 IR Inten    --    21.6040                18.8862                21.1119
 Raman Activ --     8.9706                 5.8846                 3.8106

                    91                     92                     93
                     A                      A                      A
 Frequencies --  1346.7438              1353.5397              1365.9095
 Red. masses --     1.3405                 1.2629                 1.1662
 Frc consts  --     1.4325                 1.3632                 1.2820
 IR Inten    --     1.1473                19.9803                36.1172
 Raman Activ --     9.5301                 1.9776                 3.4803

                    94                     95                     96
                     A                      A                      A
 Frequencies --  1369.4196              1374.0338              1381.3913
 Red. masses --     1.2384                 1.1719                 1.5544
 Frc consts  --     1.3684                 1.3036                 1.7476
 IR Inten    --    31.0865                 9.7129                 9.8242
 Raman Activ --     4.0267                 2.7167                 5.4574

                    97                     98                     99
                     A                      A                      A
 Frequencies --  1386.6462              1399.8146              1442.0211
 Red. masses --     1.4138                 1.4379                 1.3331
 Frc consts  --     1.6017                 1.6600                 1.6333
 IR Inten    --     3.5256                 3.8077                21.0928
 Raman Activ --     5.5724                 3.3401                 3.2372

                   100                    101                    102
                     A                      A                      A
 Frequencies --  1448.0931              1455.4184              1459.9534
 Red. masses --     1.2086                 1.3189                 1.3204
 Frc consts  --     1.4932                 1.6461                 1.6582
 IR Inten    --     2.8499                32.7078                17.1503
 Raman Activ --    11.1877                 0.8249                 2.5876

                   103                    104                    105
                     A                      A                      A
 Frequencies --  1466.7127              1470.1432              1474.8785
 Red. masses --     1.3728                 1.1147                 1.1028
 Frc consts  --     1.7400                 1.4195                 1.4134
 IR Inten    --    44.0361                 3.2101                 2.3101
 Raman Activ --     1.8520                 3.0633                 3.0677

                   106                    107                    108
                     A                      A                      A
 Frequencies --  1509.5942              1515.5915              3247.5732
 Red. masses --     1.2588                 1.2750                 1.0778
 Frc consts  --     1.6902                 1.7256                 6.6975
 IR Inten    --    43.2516                75.2776                31.5640
 Raman Activ --     3.4498                 0.5062               125.0949

                   109                    110                    111
                     A                      A                      A
 Frequencies --  3253.6457              3256.1093              3258.5341
 Red. masses --     1.0617                 1.0789                 1.0786
 Frc consts  --     6.6219                 6.7398                 6.7479
 IR Inten    --    20.4257                 1.0034                22.6129
 Raman Activ --    60.1447                54.7419                60.0417

                   112                    113                    114
                     A                      A                      A
 Frequencies --  3262.1096              3266.4819              3272.4404
 Red. masses --     1.0610                 1.0805                 1.0841
 Frc consts  --     6.6521                 6.7927                 6.8399
 IR Inten    --    39.2863                 8.9946                20.0266
 Raman Activ --    74.5000               125.0448                73.0590

                   115                    116                    117
                     A                      A                      A
 Frequencies --  3279.5074              3281.4856              3284.6476
 Red. masses --     1.0840                 1.0833                 1.0850
 Frc consts  --     6.8690                 6.8727                 6.8968
 IR Inten    --     2.9254                49.6818                 8.4927
 Raman Activ --     7.8377                59.9042                17.0615

                   118                    119                    120
                     A                      A                      A
 Frequencies --  3294.2529              3296.8767              3299.2239
 Red. masses --     1.0768                 1.0868                 1.0819
 Frc consts  --     6.8849                 6.9597                 6.9383
 IR Inten    --   238.9510                50.3004               183.3024
 Raman Activ --   171.3985                41.7841                54.6076

                   121                    122                    123
                     A                      A                      A
 Frequencies --  3305.9310              3315.0745              3321.8281
 Red. masses --     1.1015                 1.1032                 1.0686
 Frc consts  --     7.0932                 7.1434                 6.9472
 IR Inten    --    98.3821                29.8315               531.9546
 Raman Activ --    56.2563                58.2750               107.2850

                   124                    125                    126
                     A                      A                      A
 Frequencies --  3367.2640              3370.2213              3374.4005
 Red. masses --     1.0660                 1.0650                 1.0687
 Frc consts  --     7.1210                 7.1268                 7.1700
 IR Inten    --    57.3391                40.0314                67.3724
 Raman Activ --   102.8817                90.2786               149.0800

                   127                    128                    129
                     A                      A                      A
 Frequencies --  3376.9158              3889.1864              3892.4153
 Red. masses --     1.0681                 1.0677                 1.0672
 Frc consts  --     7.1764                 9.5152                 9.5269
 IR Inten    --    67.8310                84.9310                70.6111
 Raman Activ --   187.4697                83.1508               117.5173

 - Thermochemistry -
 -------------------
 Temperature   298.150 Kelvin.  Pressure   1.00000 Atm.
 Atom     1 has atomic number  8 and mass  15.99491

 Molecular mass:   342.11621 amu.
 Principal axes and moments of inertia in atomic units:
                           1         2         3
     Eigenvalues --  4532.39607********************
           X            0.99997  -0.00830   0.00043
           Y            0.00830   0.99997   0.00020
           Z           -0.00043  -0.00019   1.00000
 This molecule is an asymmetric top.
 Rotational symmetry number  1.
 Warning -- assumption of classical behavior for rotation
           may cause significant error
 Rotational temperatures (Kelvin)      0.01911     0.00689     0.00522
 Rotational constants (GHZ):           0.39819     0.14358     0.10870
    7 imaginary frequencies ignored.
 Zero-point vibrational energy     975426.0 (Joules/Mol)
                                  233.13242 (Kcal/Mol)
 Warning -- explicit consideration of  32 degrees of freedom as
           vibrations may cause significant error
 Vibrational temperatures:     80.82   109.77   121.22   150.96   175.04
          (Kelvin)            204.10   247.54   259.22   280.25   323.11
                              378.52   388.80   405.48   429.44   432.70
                              450.68   453.11   480.76   508.14   536.98
                              578.67   592.74   603.04   620.07   683.50
                              690.55   707.59   767.25   813.26   820.66
                              845.59   872.84   903.01   911.73   947.69
                              963.96  1073.43  1087.47  1147.15  1209.68
                             1222.38  1241.05  1331.00  1366.20  1401.81
                             1413.91  1419.95  1427.78  1448.57  1465.91
                             1483.18  1511.30  1526.04  1532.07  1540.44
                             1551.64  1582.13  1599.27  1615.50  1622.00
                             1623.71  1635.47  1653.92  1671.61  1676.37
                             1688.93  1709.55  1728.56  1743.20  1759.57
                             1776.79  1788.82  1827.48  1837.56  1843.03
                             1858.74  1865.05  1879.48  1887.62  1890.32
                             1897.55  1919.78  1931.67  1937.66  1947.44
                             1965.24  1970.29  1976.93  1987.51  1995.07
                             2014.02  2074.74  2083.48  2094.02  2100.54
                             2110.27  2115.21  2122.02  2171.97  2180.60
                             4672.53  4681.26  4684.81  4688.30  4693.44
                             4699.73  4708.31  4718.47  4721.32  4725.87
                             4739.69  4743.46  4746.84  4756.49  4769.65
                             4779.36  4844.74  4848.99  4855.00  4858.62
                             5595.66  5600.31

 Zero-point correction=                           0.371520 (Hartree/Particle)
 Thermal correction to Energy=                    0.389999
 Thermal correction to Enthalpy=                  0.390944
 Thermal correction to Gibbs Free Energy=         0.326176
 Sum of electronic and zero-point Energies=          -1297.604692
 Sum of electronic and thermal Energies=             -1297.586213
 Sum of electronic and thermal Enthalpies=           -1297.585269
 Sum of electronic and thermal Free Energies=        -1297.650036

                     E (Thermal)             CV                S
                      KCal/Mol        Cal/Mol-Kelvin    Cal/Mol-Kelvin
 Total                  244.728             76.264            136.315
 Electronic               0.000              0.000              0.000
 Translational            0.889              2.981             43.384
 Rotational               0.889              2.981             35.202
 Vibrational            242.951             70.302             57.729
 Vibration     1          0.596              1.975              4.587
 Vibration     2          0.599              1.965              3.984
 Vibration     3          0.601              1.960              3.789
 Vibration     4          0.605              1.945              3.361
 Vibration     5          0.609              1.931              3.074
 Vibration     6          0.615              1.911              2.779
 Vibration     7          0.626              1.877              2.413
 Vibration     8          0.629              1.867              2.327
 Vibration     9          0.635              1.847              2.182
 Vibration    10          0.649              1.804              1.922
 Vibration    11          0.670              1.740              1.641
 Vibration    12          0.674              1.728              1.595
 Vibration    13          0.681              1.707              1.523
 Vibration    14          0.692              1.677              1.425
 Vibration    15          0.693              1.672              1.413
 Vibration    16          0.701              1.648              1.345
 Vibration    17          0.702              1.645              1.336
 Vibration    18          0.716              1.607              1.240
 Vibration    19          0.729              1.569              1.152
 Vibration    20          0.745              1.527              1.067
 Vibration    21          0.768              1.465              0.955
 Vibration    22          0.776              1.444              0.920
 Vibration    23          0.782              1.429              0.895
 Vibration    24          0.792              1.403              0.855
 Vibration    25          0.832              1.305              0.724
 Vibration    26          0.836              1.295              0.710
 Vibration    27          0.848              1.268              0.679
 Vibration    28          0.888              1.176              0.580
 Vibration    29          0.921              1.106              0.513
 Vibration    30          0.926              1.095              0.503
 Vibration    31          0.945              1.058              0.471
 Vibration    32          0.965              1.018              0.438

 Normal termination of Gaussian 09 at Thu Mar 24 12:12:40 2016.
