 Gaussian 09, Revision B.01,
 Gaussian 09:  EM64L-G09RevB.01 12-Aug-2010

 -------------------------------------------------
 # freq=raman b3lyp/6-31+g(2d,p) geom=connectivity
 -------------------------------------------------

 -----------------
 450 8424/8424.com
 -----------------
 Symbolic Z-matrix:
 Charge =  0 Multiplicity = 1

                         Standard orientation:
 ---------------------------------------------------------------------
 Center     Atomic      Atomic             Coordinates (Angstroms)
 Number     Number       Type             X           Y           Z
 ---------------------------------------------------------------------
      1          8           0       -5.054749    0.387782   -0.725719
      2          6           0       -3.821094    0.114017   -0.047221
      3          6           0       -3.207788   -1.240794   -0.361221
      4          8           0       -4.163116   -2.306007   -0.245139
      5          1           0       -5.045548   -1.851333   -0.369210
      6          6           0       -1.882396   -1.530762    0.322741
      7          8           0       -1.466758   -2.829705   -0.122199
      8          1           0       -2.347244   -3.122122   -0.495367
      9          6           0       -3.214327    2.381378    0.598351
     10          8           0       -2.534366    3.643809    0.654461
     11          1           0       -3.084053    4.435895    0.920579
     12          6           0       -2.773382    1.196866   -0.245524
     13          8           0       -1.480257    0.861672    0.280528
     14          6           0       -0.938085   -0.413055   -0.093301
     15          8           0        0.238656   -0.494712    0.723144
     16          6           0        1.494770   -0.279128    0.063289
     17          6           0        1.828098    1.200630   -0.035431
     18          8           0        0.929226    2.043564   -0.770712
     19          1           0        0.083275    1.696865   -0.365526
     20          6           0        3.224655    1.393743   -0.604844
     21          8           0        3.603624    2.703667   -0.157485
     22          1           0        2.969509    3.279069   -0.675049
     23          6           0        2.204703   -2.609231    0.836908
     24          8           0        2.059091   -3.247915   -0.440331
     25          1           0        1.160409   -3.098890   -0.851296
     26          6           0        2.538816   -1.128425    0.769847
     27          8           0        3.750819   -0.896702    0.037523
     28          6           0        4.169283    0.471374    0.147916
     29          8           0        5.423503    0.398229   -0.545667
     30          1           0        6.022864   -0.176024   -0.063379
     31          1           0        4.295792    0.768437    1.168038
     32          1           0        3.272537    1.279172   -1.667615
     33          1           0        1.847301    1.575439    0.966591
     34          1           0        1.401566   -0.651822   -0.935367
     35          1           0        2.663612   -0.760180    1.766703
     36          1           0        1.289165   -2.724665    1.378540
     37          1           0        2.983109   -3.106957    1.376587
     38          1           0       -5.781148   -0.014051   -0.243563
     39          1           0       -3.260856    2.025429    1.606337
     40          1           0       -4.218606    2.599332    0.300327
     41          1           0       -2.703408    1.473739   -1.276710
     42          1           0       -4.051310    0.104818    0.997679
     43          1           0       -2.970881   -1.197542   -1.403768
     44          1           0       -2.009498   -1.528822    1.385163
     45          1           0       -0.701493   -0.454932   -1.135976
 ---------------------------------------------------------------------

 SCF Done:  E(RB3LYP) =  -1297.97897204     A.U. after   14 cycles

 The electronic state is 1-A.
 Alpha  occ. eigenvalues --  -19.21172 -19.20218 -19.20059 -19.18265 -19.17947
 Alpha  occ. eigenvalues --  -19.16564 -19.15443 -19.15423 -19.14597 -19.14582
 Alpha  occ. eigenvalues --  -19.14445 -10.31910 -10.28736 -10.28435 -10.28088
 Alpha  occ. eigenvalues --  -10.27530 -10.27029 -10.25335 -10.24468 -10.24138
 Alpha  occ. eigenvalues --  -10.23474 -10.23327 -10.22942  -1.11212  -1.09367
 Alpha  occ. eigenvalues --   -1.07293  -1.07286  -1.04929  -1.04479  -1.03395
 Alpha  occ. eigenvalues --   -1.02693  -1.01144  -1.00811  -0.99472  -0.84065
 Alpha  occ. eigenvalues --   -0.82443  -0.78748  -0.77328  -0.72460  -0.70180
 Alpha  occ. eigenvalues --   -0.68373  -0.65279  -0.64359  -0.63584  -0.61572
 Alpha  occ. eigenvalues --   -0.59998  -0.58848  -0.57408  -0.55553  -0.54882
 Alpha  occ. eigenvalues --   -0.54026  -0.53523  -0.52750  -0.52385  -0.51458
 Alpha  occ. eigenvalues --   -0.50294  -0.49937  -0.49198  -0.48674  -0.47136
 Alpha  occ. eigenvalues --   -0.46324  -0.45180  -0.44871  -0.44706  -0.43890
 Alpha  occ. eigenvalues --   -0.43563  -0.42608  -0.41558  -0.41287  -0.40877
 Alpha  occ. eigenvalues --   -0.40019  -0.38720  -0.38177  -0.37814  -0.36909
 Alpha  occ. eigenvalues --   -0.35458  -0.34934  -0.34754  -0.33969  -0.33827
 Alpha  occ. eigenvalues --   -0.32358  -0.32214  -0.31756  -0.31490  -0.30502
 Alpha  occ. eigenvalues --   -0.29683  -0.29379  -0.28568  -0.27773  -0.26758
 Alpha  occ. eigenvalues --   -0.26270
 Alpha virt. eigenvalues --   -0.05115  -0.02085  -0.00909   0.00153   0.00824
 Alpha virt. eigenvalues --    0.01163   0.01630   0.02266   0.02806   0.03557
 Alpha virt. eigenvalues --    0.03862   0.04359   0.04887   0.04968   0.05283

 Mulliken atomic charges:
              1
     1  O   -0.507525
     2  C   -0.352584
     3  C    0.160513
     4  O   -0.545493
     5  H    0.312106
     6  C    0.103607
     7  O   -0.556802
     8  H    0.364576
     9  C   -0.425139
    10  O   -0.550514
    11  H    0.345172
    12  C    0.511706
    13  O   -0.235169
    14  C    0.184574
    15  O   -0.267396
    16  C    0.060620
    17  C    0.047855
    18  O   -0.590749
    19  H    0.391904
    20  C   -0.079235
    21  O   -0.505391
    22  H    0.342589
    23  C   -0.380855
    24  O   -0.468510
    25  H    0.337079
    26  C    0.316106
    27  O   -0.272234
    28  C    0.227782
    29  O   -0.507751
    30  H    0.323087
    31  H    0.135316
    32  H    0.141195
    33  H    0.132234
    34  H    0.117041
    35  H    0.109818
    36  H    0.164292
    37  H    0.144181
    38  H    0.324775
    39  H    0.140701
    40  H    0.150428
    41  H    0.127957
    42  H    0.121151
    43  H    0.127605
    44  H    0.137032
    45  H    0.142345
 Sum of Mulliken atomic charges =   0.00000

 Dipole moment (field-independent basis, Debye):
    X=             -9.1423    Y=              0.4790    Z=              2.2619  Tot=              9.4302
 Quadrupole moment (field-independent basis, Debye-Ang):
   XX=           -118.6133   YY=           -151.8152   ZZ=           -136.1213
   XY=             -8.1523   XZ=              5.6146   YZ=              0.3341

  Exact polarizability: 224.568   1.059 197.281   2.131  -0.444 147.058
 Approx polarizability: 269.979  -1.553 260.712   2.764   0.637 242.609

 ******    7 imaginary frequencies (negative Signs) ******

                     1                      2                      3
                     A                      A                      A
 Frequencies --  -294.6265              -202.3393              -162.3600
 Red. masses --     1.7015                 1.0941                 1.5312
 Frc consts  --     0.0870                 0.0264                 0.0238
 IR Inten    --     6.4811               123.8748                82.4454
 Raman Activ --     0.0346                 1.5195                 0.4228

                     4                      5                      6
                     A                      A                      A
 Frequencies --   -68.1208               -65.0199               -60.5930
 Red. masses --     5.4257                 3.7330                 3.3007
 Frc consts  --     0.0148                 0.0093                 0.0071
 IR Inten    --     2.5214                 2.6061                 0.9728
 Raman Activ --     0.0695                 0.0563                 0.0825

                     7                      8                      9
                     A                      A                      A
 Frequencies --   -38.0229                35.6205                38.9343
 Red. masses --     7.0642                 6.5261                 5.7640
 Frc consts  --     0.0060                 0.0049                 0.0051
 IR Inten    --     0.6292                 2.1066                 0.8145
 Raman Activ --     0.0385                 0.1009                 0.1001

                    10                     11                     12
                     A                      A                      A
 Frequencies --    51.1175                86.2428               120.2751
 Red. masses --     5.4521                 6.8218                 5.6029
 Frc consts  --     0.0084                 0.0299                 0.0478
 IR Inten    --     6.6886                 2.8442                 1.2388
 Raman Activ --     0.0980                 0.2613                 0.2649

                    13                     14                     15
                     A                      A                      A
 Frequencies --   126.2044               168.0901               169.6979
 Red. masses --     3.9335                 6.2916                 5.2122
 Frc consts  --     0.0369                 0.1047                 0.0884
 IR Inten    --     3.7504                 5.1534                 0.3972
 Raman Activ --     0.4855                 0.8485                 0.1224

                    16                     17                     18
                     A                      A                      A
 Frequencies --   192.1885               233.6085               249.0040
 Red. masses --     4.9841                 5.3486                 5.2110
 Frc consts  --     0.1085                 0.1720                 0.1904
 IR Inten    --     1.4947                 0.5438                 0.8916
 Raman Activ --     0.3278                 1.7788                 1.3717

                    19                     20                     21
                     A                      A                      A
 Frequencies --   257.6130               273.5595               289.6403
 Red. masses --     4.6631                 5.5647                 5.4828
 Frc consts  --     0.1823                 0.2454                 0.2710
 IR Inten    --     7.0352                 1.8330                 6.0561
 Raman Activ --     0.2242                 0.0467                 1.2017

                    22                     23                     24
                     A                      A                      A
 Frequencies --   308.0214               315.9697               323.8255
 Red. masses --     5.5781                 4.8489                 6.8770
 Frc consts  --     0.3118                 0.2852                 0.4249
 IR Inten    --     7.1847                14.6223                 1.4038
 Raman Activ --     0.1715                 1.0470                 3.2650

                    25                     26                     27
                     A                      A                      A
 Frequencies --   357.9835               368.2070               386.6638
 Red. masses --     5.0631                 3.1603                 4.2008
 Frc consts  --     0.3823                 0.2524                 0.3700
 IR Inten    --     1.8210                29.0189                 5.1834
 Raman Activ --     1.1646                 2.1068                 3.4153

                    28                     29                     30
                     A                      A                      A
 Frequencies --   412.4639               417.8444               438.3890
 Red. masses --     4.4550                 6.2881                 5.1943
 Frc consts  --     0.4465                 0.6468                 0.5882
 IR Inten    --     4.8614                 1.5091                 1.9801
 Raman Activ --     2.0924                 4.5400                 0.6839

                    31                     32                     33
                     A                      A                      A
 Frequencies --   469.7071               478.8661               507.6886
 Red. masses --     5.6768                 4.0788                 4.1341
 Frc consts  --     0.7379                 0.5511                 0.6278
 IR Inten    --    10.5740                 7.6210                 7.6180
 Raman Activ --     0.8539                 3.8801                 3.2568

                    34                     35                     36
                     A                      A                      A
 Frequencies --   533.2232               546.9767               571.7065
 Red. masses --     4.3715                 3.2870                 3.4661
 Frc consts  --     0.7323                 0.5794                 0.6675
 IR Inten    --    15.6528                39.3160                19.5845
 Raman Activ --     4.3405                 2.0902                 2.7506

                    37                     38                     39
                     A                      A                      A
 Frequencies --   579.6753               593.9723               615.5355
 Red. masses --     3.1316                 2.1681                 1.7417
 Frc consts  --     0.6200                 0.4507                 0.3888
 IR Inten    --    27.5874                18.2790                66.3416
 Raman Activ --     0.9342                 1.9277                 0.8475

                    40                     41                     42
                     A                      A                      A
 Frequencies --   632.6771               639.4718               670.5865
 Red. masses --     2.9259                 1.1594                 4.2695
 Frc consts  --     0.6900                 0.2793                 1.1312
 IR Inten    --    45.5730                80.2694                 4.3279
 Raman Activ --     0.5014                 1.6361                 0.3687

                    43                     44                     45
                     A                      A                      A
 Frequencies --   696.1706               703.3168               715.7492
 Red. masses --     1.1415                 1.2398                 2.3777
 Frc consts  --     0.3260                 0.3613                 0.7177
 IR Inten    --    28.7137               102.9046                11.7033
 Raman Activ --     0.3021                 0.9802                 0.3757

                    46                     47                     48
                     A                      A                      A
 Frequencies --   756.9268               839.4724               850.5480
 Red. masses --     1.1482                 2.6056                 1.1682
 Frc consts  --     0.3876                 1.0819                 0.4979
 IR Inten    --   124.3170                 6.4132                40.2974
 Raman Activ --     1.4531                 2.9363                 0.3457

                    49                     50                     51
                     A                      A                      A
 Frequencies --   855.3453               884.9344               930.3658
 Red. masses --     2.3093                 2.8723                 6.6312
 Frc consts  --     0.9955                 1.3253                 3.3818
 IR Inten    --     1.0175                32.3030               183.5192
 Raman Activ --     3.6335                 2.6454                 1.4205

                    52                     53                     54
                     A                      A                      A
 Frequencies --   957.7130               961.7072               999.7948
 Red. masses --     6.5491                 5.3433                 6.1571
 Frc consts  --     3.5392                 2.9117                 3.6262
 IR Inten    --   158.1265                97.5012               228.8301
 Raman Activ --     4.5058                 3.1520                 1.9491

                    55                     56                     57
                     A                      A                      A
 Frequencies --  1005.7593              1012.0205              1018.5440
 Red. masses --     3.8011                 4.2115                 5.5134
 Frc consts  --     2.2654                 2.5414                 3.3700
 IR Inten    --   170.3419                20.6995               197.7971
 Raman Activ --     2.4175                 3.0212                 0.2905

                    58                     59                     60
                     A                      A                      A
 Frequencies --  1029.2227              1036.8317              1041.3747
 Red. masses --     3.2172                 3.5013                 2.4389
 Frc consts  --     2.0079                 2.2177                 1.5583
 IR Inten    --   198.0785                81.2763                93.8164
 Raman Activ --     2.4120                 0.9854                 5.6753

                    61                     62                     63
                     A                      A                      A
 Frequencies --  1060.4168              1064.3206              1072.1729
 Red. masses --     5.3154                 3.7795                 4.5301
 Frc consts  --     3.5216                 2.5225                 3.0683
 IR Inten    --   100.7287                38.5724                45.2469
 Raman Activ --    10.8430                 9.9264                 4.3973

                    64                     65                     66
                     A                      A                      A
 Frequencies --  1080.9928              1087.9086              1095.9642
 Red. masses --     3.7942                 2.5779                 3.0799
 Frc consts  --     2.6123                 1.7976                 2.1796
 IR Inten    --    32.6669                23.8433                38.2186
 Raman Activ --     4.5122                 4.7568                12.7164

                    67                     68                     69
                     A                      A                      A
 Frequencies --  1112.2453              1115.3448              1128.2295
 Red. masses --     2.6913                 2.4431                 2.5791
 Frc consts  --     1.9616                 1.7906                 1.9342
 IR Inten    --     2.9344                 7.5599                27.6935
 Raman Activ --     2.0034                 3.7262                 3.5788

                    70                     71                     72
                     A                      A                      A
 Frequencies --  1140.0812              1149.8126              1156.0455
 Red. masses --     2.0925                 2.1219                 2.7271
 Frc consts  --     1.6025                 1.6528                 2.1474
 IR Inten    --    18.0167                 6.9781                30.1212
 Raman Activ --     1.3333                 1.7240                 3.5102

                    73                     74                     75
                     A                      A                      A
 Frequencies --  1170.3895              1177.9742              1184.0454
 Red. masses --     1.9873                 2.8236                 1.8632
 Frc consts  --     1.6039                 2.3084                 1.5390
 IR Inten    --    19.9565                 6.2414                 6.4530
 Raman Activ --     0.7097                 7.0305                 3.2520

                    76                     77                     78
                     A                      A                      A
 Frequencies --  1201.1127              1215.3772              1226.1857
 Red. masses --     1.3439                 1.2171                 1.4656
 Frc consts  --     1.1423                 1.0593                 1.2983
 IR Inten    --    10.4230                10.8718                 6.3086
 Raman Activ --     2.3158                 4.4706                 0.5034

                    79                     80                     81
                     A                      A                      A
 Frequencies --  1232.3157              1238.5087              1245.6902
 Red. masses --     1.1636                 1.2957                 1.2917
 Frc consts  --     1.0411                 1.1710                 1.1810
 IR Inten    --    16.9717                 7.8476                 5.7841
 Raman Activ --     2.8822                 2.2212                 2.0539

                    82                     83                     84
                     A                      A                      A
 Frequencies --  1252.6657              1260.1838              1262.9624
 Red. masses --     1.3243                 1.4107                 1.2165
 Frc consts  --     1.2243                 1.3200                 1.1433
 IR Inten    --    32.3308                22.0417                40.9209
 Raman Activ --     2.3467                 2.7632                 4.1446

                    85                     86                     87
                     A                      A                      A
 Frequencies --  1279.2825              1300.1351              1306.6298
 Red. masses --     1.2400                 1.3553                 1.4122
 Frc consts  --     1.1957                 1.3498                 1.4206
 IR Inten    --    28.7357                 8.2215                14.0657
 Raman Activ --     5.5204                 1.5895                 2.7703

                    88                     89                     90
                     A                      A                      A
 Frequencies --  1312.9687              1317.8963              1331.3862
 Red. masses --     1.3982                 1.2743                 1.4112
 Frc consts  --     1.4201                 1.3040                 1.4739
 IR Inten    --    16.8291                 1.6003                 5.4313
 Raman Activ --     4.1404                 2.1598                 2.9657

                    91                     92                     93
                     A                      A                      A
 Frequencies --  1337.7790              1346.5791              1353.1993
 Red. masses --     1.2886                 1.4429                 1.3330
 Frc consts  --     1.3587                 1.5415                 1.4382
 IR Inten    --    21.3364                 8.7229                 9.9351
 Raman Activ --    11.4002                 0.8568                 3.0572

                    94                     95                     96
                     A                      A                      A
 Frequencies --  1358.8475              1372.2548              1386.0390
 Red. masses --     1.1687                 1.6251                 1.5665
 Frc consts  --     1.2714                 1.8030                 1.7731
 IR Inten    --    12.4193                28.2395                16.1289
 Raman Activ --     1.7740                 2.2433                 5.7163

                    97                     98                     99
                     A                      A                      A
 Frequencies --  1388.0772              1391.5191              1408.3212
 Red. masses --     1.2708                 1.1924                 1.4243
 Frc consts  --     1.4426                 1.3604                 1.6644
 IR Inten    --     3.7216                13.9345                 3.7318
 Raman Activ --     7.1341                 2.3279                 6.8393

                   100                    101                    102
                     A                      A                      A
 Frequencies --  1417.6804              1435.2292              1443.8077
 Red. masses --     1.1775                 1.3152                 1.0697
 Frc consts  --     1.3944                 1.5961                 1.3138
 IR Inten    --    57.8169                 4.3958                 8.0508
 Raman Activ --     4.1197                 0.1275                 5.0753

                   103                    104                    105
                     A                      A                      A
 Frequencies --  1452.4163              1461.8621              1496.3552
 Red. masses --     1.0723                 1.3964                 1.3699
 Frc consts  --     1.3327                 1.7582                 1.8072
 IR Inten    --     5.2547                76.1207                50.0484
 Raman Activ --     4.7425                 2.5907                 2.3766

                   106                    107                    108
                     A                      A                      A
 Frequencies --  1542.8275              1587.1740              3253.6968
 Red. masses --     1.2511                 1.1584                 1.0739
 Frc consts  --     1.7545                 1.7194                 6.6985
 IR Inten    --    50.6887               111.9829                24.0261
 Raman Activ --     0.5915                 1.9647                24.3464

                   109                    110                    111
                     A                      A                      A
 Frequencies --  3258.2954              3266.8831              3268.7903
 Red. masses --     1.0662                 1.0765                 1.0788
 Frc consts  --     6.6689                 6.7689                 6.7912
 IR Inten    --     8.6713                 4.2957                16.2368
 Raman Activ --   145.3289                48.6455                49.3407

                   112                    113                    114
                     A                      A                      A
 Frequencies --  3272.8752              3279.5825              3286.1894
 Red. masses --     1.0821                 1.0688                 1.0835
 Frc consts  --     6.8295                 6.7730                 6.8936
 IR Inten    --    33.3731                17.2166                35.4842
 Raman Activ --    36.0852               105.2117                49.7188

                   115                    116                    117
                     A                      A                      A
 Frequencies --  3290.6719              3291.7414              3293.9499
 Red. masses --     1.0853                 1.0851                 1.0859
 Frc consts  --     6.9242                 6.9272                 6.9417
 IR Inten    --    16.0450                11.2852                38.7925
 Raman Activ --    87.3508                41.0076               133.6388

                   118                    119                    120
                     A                      A                      A
 Frequencies --  3302.0613              3306.2345              3311.9831
 Red. masses --     1.0817                 1.0840                 1.0894
 Frc consts  --     6.9493                 6.9813                 7.0410
 IR Inten    --   115.3677               253.8799                92.7368
 Raman Activ --    58.6721                50.4444                63.0189

                   121                    122                    123
                     A                      A                      A
 Frequencies --  3313.1952              3333.4078              3345.3355
 Red. masses --     1.0862                 1.1058                 1.0663
 Frc consts  --     7.0253                 7.2395                 7.0306
 IR Inten    --   112.3513                37.9539               101.8846
 Raman Activ --    64.4488                87.7391                75.5052

                   124                    125                    126
                     A                      A                      A
 Frequencies --  3361.6537              3366.2292              3368.8479
 Red. masses --     1.0651                 1.0649                 1.0692
 Frc consts  --     7.0915                 7.1096                 7.1492
 IR Inten    --    30.4514                33.3348                74.1683
 Raman Activ --    74.6954                63.0766               189.0664

                   127                    128                    129
                     A                      A                      A
 Frequencies --  3375.9605              3878.7290              3887.5005
 Red. masses --     1.0696                 1.0675                 1.0665
 Frc consts  --     7.1821                 9.4627                 9.4962
 IR Inten    --    34.3938                61.3976                51.5174
 Raman Activ --    53.5782                91.6615               128.8038

 - Thermochemistry -
 -------------------
 Temperature   298.150 Kelvin.  Pressure   1.00000 Atm.
 Atom     1 has atomic number  8 and mass  15.99491

 Molecular mass:   342.11621 amu.
 Principal axes and moments of inertia in atomic units:
                           1         2         3
     Eigenvalues --  4576.63294********************
           X            0.99998  -0.00596   0.00123
           Y            0.00596   0.99998  -0.00001
           Z           -0.00123   0.00002   1.00000
 This molecule is an asymmetric top.
 Rotational symmetry number  1.
 Warning -- assumption of classical behavior for rotation
           may cause significant error
 Rotational temperatures (Kelvin)      0.01893     0.00738     0.00555
 Rotational constants (GHZ):           0.39434     0.15380     0.11562
    7 imaginary frequencies ignored.
 Zero-point vibrational energy     972743.9 (Joules/Mol)
                                  232.49136 (Kcal/Mol)
 Warning -- explicit consideration of  32 degrees of freedom as
           vibrations may cause significant error
 Vibrational temperatures:     51.25    56.02    73.55   124.08   173.05
          (Kelvin)            181.58   241.84   244.16   276.52   336.11
                              358.26   370.65   393.59   416.73   443.17
                              454.61   465.91   515.06   529.77   556.32
                              593.44   601.18   630.74   675.80   688.98
                              730.45   767.19   786.98   822.56   834.02
                              854.59   885.62   910.28   920.06   964.82
                             1001.63  1011.91  1029.80  1089.05  1207.81
                             1223.75  1230.65  1273.22  1338.59  1377.93
                             1383.68  1438.48  1447.06  1456.07  1465.46
                             1480.82  1491.77  1498.30  1525.70  1531.32
                             1542.62  1555.31  1565.26  1576.85  1600.27
                             1604.73  1623.27  1640.32  1654.32  1663.29
                             1683.93  1694.84  1703.58  1728.13  1748.65
                             1764.21  1773.03  1781.94  1792.27  1802.30
                             1813.12  1817.12  1840.60  1870.60  1879.95
                             1889.07  1896.16  1915.57  1924.76  1937.42
                             1946.95  1955.08  1974.37  1994.20  1997.13
                             2002.08  2026.26  2039.72  2064.97  2077.31
                             2089.70  2103.29  2152.92  2219.78  2283.59
                             4681.34  4687.95  4700.31  4703.05  4708.93
                             4718.58  4728.09  4734.54  4736.08  4739.25
                             4750.92  4756.93  4765.20  4766.94  4796.02
                             4813.19  4836.66  4843.25  4847.01  4857.25
                             5580.62  5593.24

 Zero-point correction=                           0.370499 (Hartree/Particle)
 Thermal correction to Energy=                    0.389154
 Thermal correction to Enthalpy=                  0.390098
 Thermal correction to Gibbs Free Energy=         0.323678
 Sum of electronic and zero-point Energies=          -1297.608473
 Sum of electronic and thermal Energies=             -1297.589819
 Sum of electronic and thermal Enthalpies=           -1297.588874
 Sum of electronic and thermal Free Energies=        -1297.655294

                     E (Thermal)             CV                S
                      KCal/Mol        Cal/Mol-Kelvin    Cal/Mol-Kelvin
 Total                  244.198             76.432            139.793
 Electronic               0.000              0.000              0.000
 Translational            0.889              2.981             43.384
 Rotational               0.889              2.981             35.082
 Vibrational            242.420             70.470             61.326
 Vibration     1          0.594              1.982              5.489
 Vibration     2          0.594              1.981              5.313
 Vibration     3          0.595              1.977              4.774
 Vibration     4          0.601              1.959              3.744
 Vibration     5          0.609              1.932              3.096
 Vibration     6          0.611              1.927              3.003
 Vibration     7          0.625              1.882              2.457
 Vibration     8          0.625              1.880              2.439
 Vibration     9          0.634              1.851              2.207
 Vibration    10          0.654              1.789              1.851
 Vibration    11          0.662              1.764              1.738
 Vibration    12          0.667              1.750              1.678
 Vibration    13          0.676              1.722              1.574
 Vibration    14          0.686              1.693              1.476
 Vibration    15          0.698              1.658              1.373
 Vibration    16          0.703              1.643              1.331
 Vibration    17          0.708              1.628              1.291
 Vibration    18          0.733              1.559              1.131
 Vibration    19          0.741              1.538              1.087
 Vibration    20          0.755              1.499              1.013
 Vibration    21          0.776              1.443              0.918
 Vibration    22          0.781              1.431              0.899
 Vibration    23          0.799              1.386              0.832
 Vibration    24          0.827              1.317              0.738
 Vibration    25          0.835              1.297              0.713
 Vibration    26          0.863              1.233              0.639
 Vibration    27          0.888              1.177              0.580
 Vibration    28          0.902              1.146              0.550
 Vibration    29          0.928              1.092              0.501
 Vibration    30          0.936              1.075              0.486
 Vibration    31          0.952              1.045              0.460
 Vibration    32          0.975              0.999              0.424

 Normal termination of Gaussian 09 at Mon Mar 28 13:28:34 2016.
