 Gaussian 09, Revision B.01,
 Gaussian 09:  EM64L-G09RevB.01 12-Aug-2010

 -------------------------------------------------
 # freq=raman b3lyp/6-31+g(2d,p) geom=connectivity
 -------------------------------------------------

 -----------------
 310 9178/9178.com
 -----------------
 Symbolic Z-matrix:
 Charge =  0 Multiplicity = 1

                         Standard orientation:
 ---------------------------------------------------------------------
 Center     Atomic      Atomic             Coordinates (Angstroms)
 Number     Number       Type             X           Y           Z
 ---------------------------------------------------------------------
      1          8           0        4.931524   -0.286960   -0.497364
      2          6           0        3.655015   -0.042278    0.109914
      3          6           0        3.100748    1.252473   -0.460772
      4          8           0        4.063521    2.269108   -0.143629
      5          1           0        4.976903    1.878945   -0.261054
      6          6           0        1.787438    1.654321    0.188813
      7          8           0        1.031958    2.821753   -0.168405
      8          1           0        0.148739    2.838980    0.299520
      9          6           0        3.169686   -2.560823    0.421771
     10          8           0        4.252486   -3.146842   -0.314362
     11          1           0        3.991880   -4.111478   -0.342336
     12          6           0        2.739327   -1.225067   -0.162545
     13          8           0        1.478140   -0.827902    0.395213
     14          6           0        0.961406    0.413237   -0.105316
     15          8           0       -0.231434    0.564728    0.678472
     16          6           0       -1.505550    0.227789    0.112407
     17          6           0       -1.974960   -1.188223    0.404556
     18          8           0       -0.953913   -2.140909    0.072487
     19          1           0       -0.171970   -1.917646    0.656102
     20          6           0       -3.285431   -1.631278   -0.224148
     21          8           0       -3.734618   -2.869993    0.344867
     22          1           0       -4.708030   -2.948119    0.130656
     23          6           0       -2.233621    2.645128   -0.195193
     24          8           0       -1.336261    3.479847    0.551988
     25          1           0       -1.526480    4.459454    0.619564
     26          6           0       -2.626217    1.245479    0.248731
     27          8           0       -3.792881    0.814110   -0.467889
     28          6           0       -4.273879   -0.483899   -0.090870
     29          8           0       -5.478517   -0.760913   -0.819512
     30          1           0       -6.182641   -0.976479   -0.203606
     31          1           0       -3.144458    3.196712   -0.300218
     32          1           0       -1.811918    2.545940   -1.173574
     33          1           0       -2.886356    1.298829    1.285255
     34          1           0       -4.541038   -0.426037    0.943624
     35          1           0       -3.111455   -1.794738   -1.267179
     36          1           0       -2.114187   -1.245952    1.463888
     37          1           0       -1.309916    0.215069   -0.939479
     38          1           0        3.478570   -2.413185    1.435524
     39          1           0        2.336074   -3.231460    0.406404
     40          1           0        5.579290   -0.477487    0.185058
     41          1           0        2.627721   -1.335189   -1.220995
     42          1           0        3.783539    0.066245    1.166609
     43          1           0        2.982294    1.171257   -1.521089
     44          1           0        1.952631    1.695025    1.245200
     45          1           0        0.726993    0.341982   -1.146889
 ---------------------------------------------------------------------

 SCF Done:  E(RB3LYP) =  -1297.97282857     A.U. after   13 cycles

 The electronic state is 1-A.
 Alpha  occ. eigenvalues --  -19.18785 -19.18754 -19.18571 -19.17502 -19.17373
 Alpha  occ. eigenvalues --  -19.16941 -19.16935 -19.16718 -19.14252 -19.14237
 Alpha  occ. eigenvalues --  -19.12919 -10.31163 -10.29710 -10.26665 -10.25643
 Alpha  occ. eigenvalues --  -10.25117 -10.25048 -10.25029 -10.24857 -10.24518
 Alpha  occ. eigenvalues --  -10.24216 -10.24194 -10.23635  -1.09567  -1.09105
 Alpha  occ. eigenvalues --   -1.05534  -1.05271  -1.04218  -1.03719  -1.03402
 Alpha  occ. eigenvalues --   -1.02842  -1.01233  -1.00860  -0.99295  -0.82070
 Alpha  occ. eigenvalues --   -0.80001  -0.79750  -0.78387  -0.72221  -0.70179
 Alpha  occ. eigenvalues --   -0.67266  -0.64528  -0.63641  -0.62457  -0.61211
 Alpha  occ. eigenvalues --   -0.60078  -0.56578  -0.56425  -0.55376  -0.54665
 Alpha  occ. eigenvalues --   -0.54363  -0.53068  -0.52879  -0.51994  -0.51372
 Alpha  occ. eigenvalues --   -0.51179  -0.49618  -0.49414  -0.48364  -0.46535
 Alpha  occ. eigenvalues --   -0.46331  -0.44950  -0.44305  -0.43544  -0.43084
 Alpha  occ. eigenvalues --   -0.42447  -0.41800  -0.40879  -0.40049  -0.39778
 Alpha  occ. eigenvalues --   -0.38328  -0.37995  -0.37001  -0.36604  -0.35927
 Alpha  occ. eigenvalues --   -0.35450  -0.34777  -0.33969  -0.33822  -0.32699
 Alpha  occ. eigenvalues --   -0.32297  -0.31461  -0.30945  -0.30239  -0.30153
 Alpha  occ. eigenvalues --   -0.29418  -0.29243  -0.28599  -0.27240  -0.26619
 Alpha  occ. eigenvalues --   -0.25954
 Alpha virt. eigenvalues --   -0.02508  -0.02016  -0.01767  -0.00291   0.00572
 Alpha virt. eigenvalues --    0.00914   0.01795   0.02335   0.03327   0.03717
 Alpha virt. eigenvalues --    0.03854   0.04431   0.04951   0.05125   0.05279

 Mulliken atomic charges:
              1
     1  O   -0.552126
     2  C   -0.076073
     3  C    0.250242
     4  O   -0.557499
     5  H    0.341553
     6  C   -0.113944
     7  O   -0.575966
     8  H    0.429948
     9  C   -0.293873
    10  O   -0.487809
    11  H    0.334474
    12  C    0.124045
    13  O   -0.265752
    14  C    0.454265
    15  O   -0.296639
    16  C    0.308586
    17  C    0.068618
    18  O   -0.505709
    19  H    0.356565
    20  C    0.083203
    21  O   -0.525068
    22  H    0.326584
    23  C   -0.281354
    24  O   -0.579616
    25  H    0.367928
    26  C   -0.125163
    27  O   -0.263070
    28  C    0.105143
    29  O   -0.541341
    30  H    0.337390
    31  H    0.146472
    32  H    0.168333
    33  H    0.118350
    34  H    0.116794
    35  H    0.134812
    36  H    0.115411
    37  H    0.099740
    38  H    0.140851
    39  H    0.145390
    40  H    0.344281
    41  H    0.117918
    42  H    0.125095
    43  H    0.123900
    44  H    0.125142
    45  H    0.129968
 Sum of Mulliken atomic charges =   0.00000

 Dipole moment (field-independent basis, Debye):
    X=             -2.7878    Y=             -0.7735    Z=              2.7975  Tot=              4.0244
 Quadrupole moment (field-independent basis, Debye-Ang):
   XX=           -117.4903   YY=           -135.5441   ZZ=           -140.2637
   XY=            -15.8070   XZ=             -0.6679   YZ=              0.7755

  Exact polarizability: 231.654   0.339 200.059   0.002   0.326 144.734
 Approx polarizability: 273.757  -0.546 261.073   0.126   2.558 241.174

 ******    6 imaginary frequencies (negative Signs) ******

                     1                      2                      3
                     A                      A                      A
 Frequencies --  -288.8628              -241.2376              -237.1106
 Red. masses --     1.6679                 1.6954                 1.2693
 Frc consts  --     0.0820                 0.0581                 0.0420
 IR Inten    --     7.6142                17.8443               109.3216
 Raman Activ --     0.0271                 0.2173                 0.7342

                     4                      5                      6
                     A                      A                      A
 Frequencies --  -165.5239               -72.5083               -64.6673
 Red. masses --     1.3503                 6.4802                 6.0301
 Frc consts  --     0.0218                 0.0201                 0.0149
 IR Inten    --    76.1003                 2.0349                 1.1550
 Raman Activ --     0.7869                 0.0771                 0.0273

                     7                      8                      9
                     A                      A                      A
 Frequencies --    11.2163                48.8360                55.2814
 Red. masses --     6.5877                 5.2776                 5.9710
 Frc consts  --     0.0005                 0.0074                 0.0108
 IR Inten    --     0.3644                 6.9575                 2.5980
 Raman Activ --     0.0677                 0.1409                 0.0254

                    10                     11                     12
                     A                      A                      A
 Frequencies --    81.8565                97.8526               105.8913
 Red. masses --     6.5436                 6.2133                 5.7067
 Frc consts  --     0.0258                 0.0351                 0.0377
 IR Inten    --     0.3305                 6.9731                 3.2093
 Raman Activ --     0.2331                 0.0895                 0.1393

                    13                     14                     15
                     A                      A                      A
 Frequencies --   153.5885               161.0911               178.2822
 Red. masses --     6.5420                 5.4429                 6.8955
 Frc consts  --     0.0909                 0.0832                 0.1291
 IR Inten    --     5.2409                 0.3239                 5.5388
 Raman Activ --     0.1171                 0.2986                 0.6507

                    16                     17                     18
                     A                      A                      A
 Frequencies --   215.7513               229.5641               260.4078
 Red. masses --     6.8125                 5.8276                 4.2571
 Frc consts  --     0.1868                 0.1809                 0.1701
 IR Inten    --     0.5735                 2.6931                15.5439
 Raman Activ --     3.9653                 0.2897                 0.3371

                    19                     20                     21
                     A                      A                      A
 Frequencies --   275.5225               294.2529               302.7308
 Red. masses --     5.3741                 4.8453                 4.1526
 Frc consts  --     0.2404                 0.2472                 0.2242
 IR Inten    --     5.9787                 5.3124                 2.9675
 Raman Activ --     0.3011                 2.6515                 1.2142

                    22                     23                     24
                     A                      A                      A
 Frequencies --   306.9838               313.9779               336.9532
 Red. masses --     5.1684                 5.6709                 5.2951
 Frc consts  --     0.2870                 0.3294                 0.3542
 IR Inten    --     7.7845                 4.4895                 0.4691
 Raman Activ --     0.4255                 2.2910                 1.0307

                    25                     26                     27
                     A                      A                      A
 Frequencies --   344.7048               367.1006               385.3488
 Red. masses --     5.3006                 6.2412                 6.6779
 Frc consts  --     0.3711                 0.4955                 0.5843
 IR Inten    --     6.3846                 7.5221                 6.2850
 Raman Activ --     3.4765                 0.5059                 1.0292

                    28                     29                     30
                     A                      A                      A
 Frequencies --   398.5227               413.3511               429.5283
 Red. masses --     3.8409                 5.2002                 5.4388
 Frc consts  --     0.3594                 0.5235                 0.5912
 IR Inten    --    22.1179                 1.6994                 5.7964
 Raman Activ --     3.6255                 3.4874                 5.9036

                    31                     32                     33
                     A                      A                      A
 Frequencies --   437.4487               474.4019               478.3595
 Red. masses --     6.0156                 4.3610                 3.6381
 Frc consts  --     0.6782                 0.5783                 0.4905
 IR Inten    --     0.2863                 3.8971                16.9588
 Raman Activ --     2.0217                 3.5842                 0.5847

                    34                     35                     36
                     A                      A                      A
 Frequencies --   509.0552               528.7120               548.0683
 Red. masses --     4.4909                 3.2041                 2.6017
 Frc consts  --     0.6857                 0.5277                 0.4604
 IR Inten    --     4.1975                14.0243                11.6796
 Raman Activ --     2.6565                 2.7530                 1.3332

                    37                     38                     39
                     A                      A                      A
 Frequencies --   559.5768               574.0202               583.3472
 Red. masses --     3.1249                 3.8294                 1.7652
 Frc consts  --     0.5765                 0.7434                 0.3539
 IR Inten    --    29.6666                 6.1051                94.6675
 Raman Activ --     0.7354                 1.7437                 0.9762

                    40                     41                     42
                     A                      A                      A
 Frequencies --   595.3918               624.2361               688.1251
 Red. masses --     3.3823                 3.5910                 5.0347
 Frc consts  --     0.7064                 0.8244                 1.4046
 IR Inten    --    10.6501                47.9505                26.6760
 Raman Activ --     0.2063                 1.1819                 1.7344

                    43                     44                     45
                     A                      A                      A
 Frequencies --   703.5233               712.2754               757.0942
 Red. masses --     1.1021                 1.0948                 1.1121
 Frc consts  --     0.3214                 0.3272                 0.3756
 IR Inten    --    78.8396                93.6700               193.0571
 Raman Activ --     1.6232                 1.2916                 5.1414

                    46                     47                     48
                     A                      A                      A
 Frequencies --   795.4079               831.8558               845.2426
 Red. masses --     1.0642                 1.5973                 1.7837
 Frc consts  --     0.3967                 0.6512                 0.7508
 IR Inten    --    84.1380                13.8366                 2.1896
 Raman Activ --     1.5967                 0.4788                 0.9012

                    49                     50                     51
                     A                      A                      A
 Frequencies --   897.7303               930.0568               957.7113
 Red. masses --     1.2182                 5.1104                 4.6313
 Frc consts  --     0.5785                 2.6045                 2.5028
 IR Inten    --    46.7098               149.1177                89.4511
 Raman Activ --     0.3930                 1.9346                 0.2693

                    52                     53                     54
                     A                      A                      A
 Frequencies --   960.5823               974.1221               988.7343
 Red. masses --     5.5392                 6.0068                 4.1498
 Frc consts  --     3.0114                 3.3583                 2.3902
 IR Inten    --    60.7966                64.9619               118.6003
 Raman Activ --     0.2867                 1.4579                 0.5655

                    55                     56                     57
                     A                      A                      A
 Frequencies --  1003.1333              1014.5944              1019.7340
 Red. masses --     5.5521                 5.8108                 6.2201
 Frc consts  --     3.2917                 3.5243                 3.8109
 IR Inten    --   250.8473               349.6026                12.5641
 Raman Activ --     1.9534                 3.8869                 7.8175

                    58                     59                     60
                     A                      A                      A
 Frequencies --  1033.4685              1048.7168              1057.3546
 Red. masses --     6.9856                 5.8309                 5.4869
 Frc consts  --     4.3959                 3.7784                 3.6143
 IR Inten    --   302.4626                81.2524                42.5364
 Raman Activ --     0.7409                 1.7428                 5.3230

                    61                     62                     63
                     A                      A                      A
 Frequencies --  1067.7588              1073.0195              1076.3107
 Red. masses --     4.2952                 3.2220                 3.7007
 Frc consts  --     2.8852                 2.1857                 2.5258
 IR Inten    --    28.1222                13.0852               152.6150
 Raman Activ --     4.8311                 9.5922                20.2064

                    64                     65                     66
                     A                      A                      A
 Frequencies --  1088.2264              1092.4052              1106.5151
 Red. masses --     4.0084                 2.7339                 2.7659
 Frc consts  --     2.7968                 1.9222                 1.9953
 IR Inten    --     2.6188                80.1404                83.9969
 Raman Activ --     7.1211                 7.9534                 0.4243

                    67                     68                     69
                     A                      A                      A
 Frequencies --  1117.0695              1127.1976              1143.0517
 Red. masses --     2.7430                 2.7362                 3.4999
 Frc consts  --     2.0167                 2.0484                 2.6942
 IR Inten    --     2.6106                26.9153                 9.9160
 Raman Activ --     6.1056                 5.0378                 2.3402

                    70                     71                     72
                     A                      A                      A
 Frequencies --  1144.0097              1153.8353              1162.6004
 Red. masses --     2.9498                 1.8227                 1.6249
 Frc consts  --     2.2746                 1.4297                 1.2940
 IR Inten    --    15.1852                10.7746                 2.2727
 Raman Activ --     4.8032                 4.6207                 1.6090

                    73                     74                     75
                     A                      A                      A
 Frequencies --  1164.8879              1174.0584              1187.7547
 Red. masses --     1.7961                 1.8942                 1.3262
 Frc consts  --     1.4360                 1.5384                 1.1024
 IR Inten    --     2.9883                 3.3805                13.8264
 Raman Activ --     3.6873                 2.3190                 1.1592

                    76                     77                     78
                     A                      A                      A
 Frequencies --  1191.3520              1214.7618              1218.0372
 Red. masses --     1.7653                 1.2967                 1.3532
 Frc consts  --     1.4762                 1.1273                 1.1829
 IR Inten    --     7.1143                11.3737                13.4955
 Raman Activ --     4.6708                 0.6462                 2.3399

                    79                     80                     81
                     A                      A                      A
 Frequencies --  1232.7483              1256.1207              1271.2839
 Red. masses --     1.1660                 1.3060                 1.1798
 Frc consts  --     1.0440                 1.2141                 1.1235
 IR Inten    --     9.9460                 8.0705                 8.4893
 Raman Activ --     1.6523                 0.5432                 0.6930

                    82                     83                     84
                     A                      A                      A
 Frequencies --  1272.4107              1275.5685              1278.5339
 Red. masses --     1.2286                 1.2807                 1.2260
 Frc consts  --     1.1720                 1.2277                 1.1807
 IR Inten    --     8.7985                63.4337                49.3646
 Raman Activ --     2.8301                 7.1876                 2.5725

                    85                     86                     87
                     A                      A                      A
 Frequencies --  1282.6646              1292.1151              1294.1196
 Red. masses --     1.2442                 1.2477                 1.2934
 Frc consts  --     1.2060                 1.2273                 1.2762
 IR Inten    --    43.7701                10.4972                28.1130
 Raman Activ --     7.5861                 2.8425                 2.4085

                    88                     89                     90
                     A                      A                      A
 Frequencies --  1309.4562              1315.8335              1325.6359
 Red. masses --     1.3240                 1.3011                 1.2735
 Frc consts  --     1.3376                 1.3273                 1.3186
 IR Inten    --     9.0268                17.8402                11.2102
 Raman Activ --     4.8591                 7.6734                 4.0153

                    91                     92                     93
                     A                      A                      A
 Frequencies --  1341.5219              1349.5407              1350.2609
 Red. masses --     1.4068                 1.2665                 1.2362
 Frc consts  --     1.4917                 1.3591                 1.3279
 IR Inten    --    52.4375                 5.5527                27.7504
 Raman Activ --     1.4902                 3.4313                 2.0501

                    94                     95                     96
                     A                      A                      A
 Frequencies --  1358.4637              1370.2209              1374.2482
 Red. masses --     1.2233                 1.5150                 1.6576
 Frc consts  --     1.3301                 1.6759                 1.8445
 IR Inten    --    17.1543                 7.9736                 5.8158
 Raman Activ --     2.2332                 9.8636                 6.3510

                    97                     98                     99
                     A                      A                      A
 Frequencies --  1379.6802              1384.3162              1394.5479
 Red. masses --     1.4550                 1.3076                 1.3951
 Frc consts  --     1.6319                 1.4764                 1.5985
 IR Inten    --     7.0792                 3.4741                41.8759
 Raman Activ --     3.8752                 5.1638                 1.3148

                   100                    101                    102
                     A                      A                      A
 Frequencies --  1412.1884              1425.4995              1436.8534
 Red. masses --     1.2398                 1.3271                 1.4446
 Frc consts  --     1.4568                 1.5889                 1.7572
 IR Inten    --     3.2116                26.9156                38.0399
 Raman Activ --     7.3061                 2.0520                 0.9238

                   103                    104                    105
                     A                      A                      A
 Frequencies --  1441.5701              1464.8602              1466.7209
 Red. masses --     1.4784                 1.0793                 1.0800
 Frc consts  --     1.8102                 1.3646                 1.3689
 IR Inten    --    60.6850                10.2916                 4.1869
 Raman Activ --     2.1597                 3.6740                 4.6829

                   106                    107                    108
                     A                      A                      A
 Frequencies --  1491.1184              1502.4584              3250.8652
 Red. masses --     1.2697                 1.2802                 1.0788
 Frc consts  --     1.6633                 1.7027                 6.7170
 IR Inten    --    56.0559                25.2672                 1.4993
 Raman Activ --     0.9319                 1.5654                77.6478

                   109                    110                    111
                     A                      A                      A
 Frequencies --  3254.1196              3256.7446              3260.8672
 Red. masses --     1.0650                 1.0564                 1.0830
 Frc consts  --     6.6448                 6.6014                 6.7850
 IR Inten    --   579.1938                38.1218                15.7036
 Raman Activ --    30.7402                88.4483                92.2915

                   112                    113                    114
                     A                      A                      A
 Frequencies --  3262.3785              3268.6668              3275.4664
 Red. masses --     1.0801                 1.0691                 1.0813
 Frc consts  --     6.7730                 6.7299                 6.8349
 IR Inten    --   113.8325               124.4572                62.9558
 Raman Activ --    13.9956               340.8172                32.5720

                   115                    116                    117
                     A                      A                      A
 Frequencies --  3278.7068              3279.0931              3283.9360
 Red. masses --     1.0823                 1.0824                 1.0825
 Frc consts  --     6.8548                 6.8571                 6.8783
 IR Inten    --    68.7532                42.0149                35.4104
 Raman Activ --    36.3192                54.7846               105.5434

                   118                    119                    120
                     A                      A                      A
 Frequencies --  3291.5197              3293.6670              3303.1311
 Red. masses --     1.0860                 1.0856                 1.0872
 Frc consts  --     6.9325                 6.9385                 6.9888
 IR Inten    --     1.0757                67.7483                83.9663
 Raman Activ --    15.5419                18.0331                10.9815

                   121                    122                    123
                     A                      A                      A
 Frequencies --  3317.0273              3318.2452              3335.4658
 Red. masses --     1.1045                 1.1065                 1.0660
 Frc consts  --     7.1600                 7.1785                 6.9878
 IR Inten    --    43.7205                46.5118               275.8434
 Raman Activ --    37.3653                27.7973               121.5693

                   124                    125                    126
                     A                      A                      A
 Frequencies --  3355.7393              3372.0806              3373.9428
 Red. masses --     1.0647                 1.0655                 1.0698
 Frc consts  --     7.0640                 7.1382                 7.1749
 IR Inten    --    38.1845                31.7574               103.8439
 Raman Activ --   107.1391               115.4754               182.5444

                   127                    128                    129
                     A                      A                      A
 Frequencies --  3378.5400              3888.1006              3890.1725
 Red. masses --     1.0684                 1.0676                 1.0676
 Frc consts  --     7.1854                 9.5086                 9.5193
 IR Inten    --    32.2569                75.2039                80.1973
 Raman Activ --   124.0504                84.6669               100.2780

 - Thermochemistry -
 -------------------
 Temperature   298.150 Kelvin.  Pressure   1.00000 Atm.
 Atom     1 has atomic number  8 and mass  15.99491

 Molecular mass:   342.11621 amu.
 Principal axes and moments of inertia in atomic units:
                           1         2         3
     Eigenvalues --  4589.18620********************
           X            0.99997  -0.00781  -0.00018
           Y            0.00781   0.99997  -0.00221
           Z            0.00020   0.00221   1.00000
 This molecule is an asymmetric top.
 Rotational symmetry number  1.
 Warning -- assumption of classical behavior for rotation
           may cause significant error
 Rotational temperatures (Kelvin)      0.01887     0.00716     0.00535
 Rotational constants (GHZ):           0.39326     0.14923     0.11139
    6 imaginary frequencies ignored.
 Zero-point vibrational energy     972220.4 (Joules/Mol)
                                  232.36626 (Kcal/Mol)
 Warning -- explicit consideration of  34 degrees of freedom as
           vibrations may cause significant error
 Vibrational temperatures:     16.14    70.26    79.54   117.77   140.79
          (Kelvin)            152.35   220.98   231.77   256.51   310.42
                              330.29   374.67   396.41   423.36   435.56
                              441.68   451.74   484.80   495.95   528.18
                              554.43   573.38   594.72   617.99   629.39
                              682.56   688.25   732.42   760.70   788.55
                              805.11   825.89   839.31   856.63   898.14
                              990.06  1012.21  1024.80  1089.29  1144.41
                             1196.85  1216.11  1291.63  1338.14  1377.93
                             1382.06  1401.54  1422.57  1443.28  1459.77
                             1467.17  1486.93  1508.87  1521.30  1536.26
                             1543.83  1548.57  1565.71  1571.73  1592.03
                             1607.21  1621.78  1644.59  1645.97  1660.11
                             1672.72  1676.01  1689.21  1708.91  1714.09
                             1747.77  1752.48  1773.65  1807.28  1829.09
                             1830.71  1835.26  1839.52  1845.47  1859.06
                             1861.95  1884.01  1893.19  1907.29  1930.15
                             1941.69  1942.72  1954.52  1971.44  1977.23
                             1985.05  1991.72  2006.44  2031.82  2050.97
                             2067.31  2074.10  2107.60  2110.28  2145.38
                             2161.70  4677.26  4681.95  4685.72  4691.65
                             4693.83  4702.88  4712.66  4717.32  4717.88
                             4724.85  4735.76  4738.85  4752.46  4772.46
                             4774.21  4798.99  4828.15  4851.67  4854.35
                             4860.96  5594.10  5597.08

 Zero-point correction=                           0.370299 (Hartree/Particle)
 Thermal correction to Energy=                    0.389712
 Thermal correction to Enthalpy=                  0.390657
 Thermal correction to Gibbs Free Energy=         0.321813
 Sum of electronic and zero-point Energies=          -1297.602529
 Sum of electronic and thermal Energies=             -1297.583116
 Sum of electronic and thermal Enthalpies=           -1297.582172
 Sum of electronic and thermal Free Energies=        -1297.651015

                     E (Thermal)             CV                S
                      KCal/Mol        Cal/Mol-Kelvin    Cal/Mol-Kelvin
 Total                  244.548             78.441            144.893
 Electronic               0.000              0.000              0.000
 Translational            0.889              2.981             43.384
 Rotational               0.889              2.981             35.152
 Vibrational            242.771             72.479             66.357
 Vibration     1          0.593              1.987              7.783
 Vibration     2          0.595              1.978              4.864
 Vibration     3          0.596              1.975              4.619
 Vibration     4          0.600              1.962              3.846
 Vibration     5          0.603              1.951              3.497
 Vibration     6          0.605              1.945              3.343
 Vibration     7          0.619              1.899              2.627
 Vibration     8          0.622              1.890              2.537
 Vibration     9          0.629              1.869              2.346
 Vibration    10          0.645              1.817              1.994
 Vibration    11          0.652              1.796              1.882
 Vibration    12          0.668              1.745              1.659
 Vibration    13          0.677              1.719              1.561
 Vibration    14          0.689              1.684              1.449
 Vibration    15          0.694              1.669              1.402
 Vibration    16          0.697              1.660              1.379
 Vibration    17          0.702              1.647              1.341
 Vibration    18          0.718              1.602              1.227
 Vibration    19          0.723              1.586              1.190
 Vibration    20          0.740              1.540              1.092
 Vibration    21          0.754              1.501              1.018
 Vibration    22          0.765              1.473              0.968
 Vibration    23          0.777              1.441              0.915
 Vibration    24          0.791              1.406              0.860
 Vibration    25          0.798              1.389              0.835
 Vibration    26          0.831              1.307              0.725
 Vibration    27          0.835              1.298              0.715
 Vibration    28          0.864              1.230              0.636
 Vibration    29          0.884              1.186              0.590
 Vibration    30          0.903              1.144              0.548
 Vibration    31          0.915              1.119              0.525
 Vibration    32          0.930              1.087              0.497
 Vibration    33          0.940              1.067              0.479
 Vibration    34          0.953              1.042              0.458

 Normal termination of Gaussian 09 at Thu Mar 24 13:02:27 2016.
