 Gaussian 09, Revision B.01,
 Gaussian 09:  EM64L-G09RevB.01 12-Aug-2010

 -------------------------------------------------
 # freq=raman b3lyp/6-31+g(2d,p) geom=connectivity
 -------------------------------------------------

 -----------------
 310 5137/5137.com
 -----------------
 Symbolic Z-matrix:
 Charge =  0 Multiplicity = 1

                         Standard orientation:
 ---------------------------------------------------------------------
 Center     Atomic      Atomic             Coordinates (Angstroms)
 Number     Number       Type             X           Y           Z
 ---------------------------------------------------------------------
      1          8           0        4.978888   -0.287968   -0.324928
      2          6           0        3.747528    0.020129    0.344901
      3          6           0        3.229551    1.293937   -0.300848
      4          8           0        4.081409    2.425897   -0.069279
      5          1           0        4.992997    2.258248   -0.442537
      6          6           0        1.777956    1.575595    0.050426
      7          8           0        1.231772    2.732312   -0.600246
      8          1           0        0.298336    2.849824   -0.263373
      9          6           0        3.189512   -2.499397    0.279063
     10          8           0        4.403375   -3.166155   -0.094912
     11          1           0        4.347420   -4.157482   -0.209898
     12          6           0        2.795301   -1.079807   -0.093998
     13          8           0        1.503635   -0.835352    0.480720
     14          6           0        0.902450    0.340589   -0.081870
     15          8           0       -0.341312    0.623629    0.575295
     16          6           0       -1.517984    0.230875   -0.145796
     17          6           0       -1.912252   -1.194937    0.206236
     18          8           0       -0.927544   -2.164869   -0.175763
     19          1           0       -0.054271   -1.859883    0.205223
     20          6           0       -3.280598   -1.543347   -0.357554
     21          8           0       -3.714774   -2.868604   -0.016148
     22          1           0       -4.652880   -3.067331   -0.298856
     23          6           0       -2.571881    2.597770    0.022886
     24          8           0       -1.366776    3.312756    0.334192
     25          1           0       -1.668522    4.224546    0.609406
     26          6           0       -2.641847    1.118201    0.363067
     27          8           0       -3.927292    0.747288   -0.158976
     28          6           0       -4.304788   -0.583175    0.224635
     29          8           0       -5.559431   -0.635402   -0.469871
     30          1           0       -6.272439   -0.737930    0.164721
     31          1           0       -3.377021    3.084688    0.532355
     32          1           0       -2.742997    2.695770   -1.028787
     33          1           0       -2.676258    1.025036    1.428447
     34          1           0       -1.382720    0.346436   -1.200902
     35          1           0       -1.994350   -1.239753    1.272140
     36          1           0       -3.262224   -1.439548   -1.422349
     37          1           0       -4.416940   -0.684776    1.283880
     38          1           0        5.646094   -0.523001    0.324068
     39          1           0        2.395556   -3.123025   -0.075369
     40          1           0        3.155352   -2.538028    1.347820
     41          1           0        2.701485   -1.030886   -1.158754
     42          1           0        3.849653    0.093203    1.407507
     43          1           0        3.250066    1.119666   -1.356362
     44          1           0        1.779489    1.812465    1.093877
     45          1           0        0.710887    0.164907   -1.119819
 ---------------------------------------------------------------------

 SCF Done:  E(RB3LYP) =  -1297.99068482     A.U. after   13 cycles

 The electronic state is 1-A.
 Alpha  occ. eigenvalues --  -19.18861 -19.18417 -19.18252 -19.17826 -19.17321
 Alpha  occ. eigenvalues --  -19.16359 -19.15989 -19.15779 -19.14756 -19.14379
 Alpha  occ. eigenvalues --  -19.13594 -10.30444 -10.30434 -10.25675 -10.25662
 Alpha  occ. eigenvalues --  -10.25577 -10.24971 -10.24824 -10.24824 -10.24554
 Alpha  occ. eigenvalues --  -10.24275 -10.23947 -10.23839  -1.10033  -1.09272
 Alpha  occ. eigenvalues --   -1.05501  -1.04845  -1.04199  -1.02927  -1.02446
 Alpha  occ. eigenvalues --   -1.02167  -1.01520  -1.00820  -0.99861  -0.82184
 Alpha  occ. eigenvalues --   -0.80352  -0.79444  -0.78150  -0.71811  -0.69928
 Alpha  occ. eigenvalues --   -0.67184  -0.64699  -0.62931  -0.62687  -0.61581
 Alpha  occ. eigenvalues --   -0.60379  -0.56536  -0.55442  -0.54934  -0.54805
 Alpha  occ. eigenvalues --   -0.53670  -0.53371  -0.52680  -0.52091  -0.51394
 Alpha  occ. eigenvalues --   -0.50221  -0.49815  -0.48980  -0.48527  -0.46360
 Alpha  occ. eigenvalues --   -0.45954  -0.44907  -0.44550  -0.43513  -0.43209
 Alpha  occ. eigenvalues --   -0.42386  -0.41651  -0.41106  -0.40263  -0.39326
 Alpha  occ. eigenvalues --   -0.38650  -0.37857  -0.37676  -0.36824  -0.36106
 Alpha  occ. eigenvalues --   -0.34870  -0.34548  -0.34070  -0.33611  -0.33378
 Alpha  occ. eigenvalues --   -0.32606  -0.31155  -0.30480  -0.30328  -0.29983
 Alpha  occ. eigenvalues --   -0.29206  -0.28493  -0.28166  -0.27207  -0.26828
 Alpha  occ. eigenvalues --   -0.26403
 Alpha virt. eigenvalues --   -0.01939  -0.01782  -0.01675   0.00031   0.00337
 Alpha virt. eigenvalues --    0.01093   0.01929   0.02218   0.03104   0.03447
 Alpha virt. eigenvalues --    0.03682   0.04278   0.05211   0.05445   0.05622

 Mulliken atomic charges:
              1
     1  O   -0.530638
     2  C    0.083999
     3  C    0.225415
     4  O   -0.564568
     5  H    0.343024
     6  C   -0.178898
     7  O   -0.569008
     8  H    0.408923
     9  C   -0.349910
    10  O   -0.560518
    11  H    0.349316
    12  C    0.320301
    13  O   -0.295339
    14  C    0.135639
    15  O   -0.244040
    16  C    0.157074
    17  C    0.132128
    18  O   -0.563841
    19  H    0.376659
    20  C    0.143325
    21  O   -0.556797
    22  H    0.342285
    23  C   -0.309488
    24  O   -0.543743
    25  H    0.354100
    26  C    0.047545
    27  O   -0.217633
    28  C    0.109019
    29  O   -0.530829
    30  H    0.329573
    31  H    0.141509
    32  H    0.157580
    33  H    0.113558
    34  H    0.121924
    35  H    0.118199
    36  H    0.130728
    37  H    0.134810
    38  H    0.335451
    39  H    0.144329
    40  H    0.144152
    41  H    0.117776
    42  H    0.126853
    43  H    0.118086
    44  H    0.123229
    45  H    0.128742
 Sum of Mulliken atomic charges =   0.00000

 Dipole moment (field-independent basis, Debye):
    X=             -2.5923    Y=             -0.4683    Z=              2.6687  Tot=              3.7498
 Quadrupole moment (field-independent basis, Debye-Ang):
   XX=           -115.3197   YY=           -137.4034   ZZ=           -137.3947
   XY=            -15.4828   XZ=             -4.6008   YZ=              3.3581

  Exact polarizability: 234.840   0.439 198.081  -0.332   0.257 143.256
 Approx polarizability: 275.254  -0.889 257.146  -0.125   0.983 239.098

 ******    6 imaginary frequencies (negative Signs) ******

                     1                      2                      3
                     A                      A                      A
 Frequencies --  -335.5434              -265.1748              -249.0134
 Red. masses --     1.6268                 1.1153                 1.7640
 Frc consts  --     0.1079                 0.0462                 0.0644
 IR Inten    --     9.8059                98.9005                 0.7682
 Raman Activ --     0.0940                 0.8229                 0.0812

                     4                      5                      6
                     A                      A                      A
 Frequencies --  -231.3803               -55.5220               -39.5589
 Red. masses --     1.1701                 6.8340                 6.4697
 Frc consts  --     0.0369                 0.0124                 0.0060
 IR Inten    --    95.8944                 0.0468                 1.0478
 Raman Activ --     0.8926                 0.0276                 0.0130

                     7                      8                      9
                     A                      A                      A
 Frequencies --    24.4535                39.0839                72.8450
 Red. masses --     6.8468                 6.7042                 6.5153
 Frc consts  --     0.0024                 0.0060                 0.0204
 IR Inten    --     0.2759                 1.0417                 1.9704
 Raman Activ --     0.0317                 0.0357                 0.3177

                    10                     11                     12
                     A                      A                      A
 Frequencies --    94.9707               102.8939               119.2855
 Red. masses --     6.7703                 6.7746                 6.1198
 Frc consts  --     0.0360                 0.0423                 0.0513
 IR Inten    --     2.6024                 1.5745                 1.4997
 Raman Activ --     0.1075                 0.0776                 0.0534

                    13                     14                     15
                     A                      A                      A
 Frequencies --   153.0162               179.7638               183.4979
 Red. masses --     6.4022                 7.8652                 5.7252
 Frc consts  --     0.0883                 0.1497                 0.1136
 IR Inten    --     3.1908                 0.4571                 1.7223
 Raman Activ --     0.4014                 0.6133                 0.6545

                    16                     17                     18
                     A                      A                      A
 Frequencies --   202.3365               225.7747               276.0216
 Red. masses --     6.4409                 6.6924                 5.2897
 Frc consts  --     0.1554                 0.2010                 0.2374
 IR Inten    --     0.5023                 1.3210                 8.9287
 Raman Activ --     1.2550                 1.2479                 0.3513

                    19                     20                     21
                     A                      A                      A
 Frequencies --   279.2961               282.4206               300.4846
 Red. masses --     4.3160                 5.7518                 5.7140
 Frc consts  --     0.1984                 0.2703                 0.3040
 IR Inten    --    12.3169                 0.6669                 3.4141
 Raman Activ --     0.2432                 0.0537                 0.0537

                    22                     23                     24
                     A                      A                      A
 Frequencies --   312.9978               315.3257               319.7768
 Red. masses --     5.3707                 6.3652                 5.5080
 Frc consts  --     0.3100                 0.3729                 0.3318
 IR Inten    --     7.5945                 7.0563                 5.0414
 Raman Activ --     0.7710                 4.6332                 1.6586

                    25                     26                     27
                     A                      A                      A
 Frequencies --   341.7598               359.3394               380.0193
 Red. masses --     6.4697                 4.4164                 6.2540
 Frc consts  --     0.4452                 0.3360                 0.5321
 IR Inten    --     6.6966                 3.5025                 2.0821
 Raman Activ --     4.9358                 0.4483                 0.7431

                    28                     29                     30
                     A                      A                      A
 Frequencies --   409.7455               412.5985               428.1825
 Red. masses --     6.0787                 5.2725                 4.9259
 Frc consts  --     0.6013                 0.5288                 0.5321
 IR Inten    --     8.4805                11.3169                12.1548
 Raman Activ --     2.1942                 2.0649                 5.9078

                    31                     32                     33
                     A                      A                      A
 Frequencies --   439.0930               476.6031               493.6889
 Red. masses --     4.5454                 3.8461                 4.6799
 Frc consts  --     0.5163                 0.5147                 0.6720
 IR Inten    --     4.8727                10.3923                11.4866
 Raman Activ --     1.7755                 1.6488                 0.7232

                    34                     35                     36
                     A                      A                      A
 Frequencies --   505.2400               523.0461               560.1732
 Red. masses --     3.7622                 3.3420                 3.7287
 Frc consts  --     0.5658                 0.5387                 0.6894
 IR Inten    --     1.7355                23.5641                 6.5264
 Raman Activ --     7.0001                 1.9142                 1.0269

                    37                     38                     39
                     A                      A                      A
 Frequencies --   586.8770               589.9739               599.7433
 Red. masses --     1.4012                 5.2632                 2.4053
 Frc consts  --     0.2844                 1.0794                 0.5097
 IR Inten    --    68.4689                 4.5928                55.4863
 Raman Activ --     1.3158                 0.3957                 0.3781

                    40                     41                     42
                     A                      A                      A
 Frequencies --   624.7600               636.1079               692.1126
 Red. masses --     3.3712                 5.1132                 1.8102
 Frc consts  --     0.7753                 1.2190                 0.5109
 IR Inten    --    33.9996                27.3594                42.9907
 Raman Activ --     1.2460                 1.2703                 0.6157

                    43                     44                     45
                     A                      A                      A
 Frequencies --   696.3630               700.9144               716.0776
 Red. masses --     1.5868                 1.1496                 1.0649
 Frc consts  --     0.4533                 0.3328                 0.3217
 IR Inten    --    91.6125                73.7897               104.9565
 Raman Activ --     1.0690                 2.3976                 1.8384

                    46                     47                     48
                     A                      A                      A
 Frequencies --   838.7473               844.6732               850.1577
 Red. masses --     1.7283                 1.1496                 1.1874
 Frc consts  --     0.7164                 0.4832                 0.5056
 IR Inten    --     7.3636                91.3075                44.1640
 Raman Activ --     1.3591                 0.9312                 1.0384

                    49                     50                     51
                     A                      A                      A
 Frequencies --   871.3486               930.8810               947.3243
 Red. masses --     1.3439                 5.9700                 6.1079
 Frc consts  --     0.6012                 3.0480                 3.2295
 IR Inten    --    28.7930               141.5409                42.9084
 Raman Activ --     0.8829                 4.6916                 0.7568

                    52                     53                     54
                     A                      A                      A
 Frequencies --   975.2483               978.8749               988.5109
 Red. masses --     5.3515                 6.2386                 4.9266
 Frc consts  --     2.9988                 3.5220                 2.8363
 IR Inten    --    64.2204                 6.3211                37.4154
 Raman Activ --     1.4053                 4.1041                 0.9715

                    55                     56                     57
                     A                      A                      A
 Frequencies --   994.1265              1008.2063              1019.3775
 Red. masses --     6.6990                 6.6817                 5.8636
 Frc consts  --     3.9007                 4.0016                 3.5899
 IR Inten    --   522.5535                39.7559               156.4787
 Raman Activ --     1.9771                 2.7739                 1.1864

                    58                     59                     60
                     A                      A                      A
 Frequencies --  1025.4169              1056.2759              1058.4052
 Red. masses --     6.9801                 3.0069                 3.5330
 Frc consts  --     4.3243                 1.9766                 2.3318
 IR Inten    --   190.6156                63.0269               210.4630
 Raman Activ --     2.0392                11.7251                 1.9182

                    61                     62                     63
                     A                      A                      A
 Frequencies --  1063.3678              1069.9554              1079.5958
 Red. masses --     4.0772                 4.9135                 3.5510
 Frc consts  --     2.7163                 3.3142                 2.4385
 IR Inten    --     7.0247                 3.8761                24.0184
 Raman Activ --     1.2293                 1.2982                26.1920

                    64                     65                     66
                     A                      A                      A
 Frequencies --  1096.1243              1098.9291              1101.7657
 Red. masses --     3.2641                 3.4749                 2.5754
 Frc consts  --     2.3106                 2.4725                 1.8420
 IR Inten    --   128.1509                15.1601                48.2589
 Raman Activ --     7.6243                12.2200                 2.7109

                    67                     68                     69
                     A                      A                      A
 Frequencies --  1107.6970              1120.3249              1134.5500
 Red. masses --     2.5487                 2.5061                 2.2116
 Frc consts  --     1.8425                 1.8533                 1.6772
 IR Inten    --     0.2768                50.0853                64.5882
 Raman Activ --     6.6592                 3.6239                 1.8237

                    70                     71                     72
                     A                      A                      A
 Frequencies --  1143.4338              1146.8187              1151.1369
 Red. masses --     2.2788                 1.9413                 2.0259
 Frc consts  --     1.7554                 1.5043                 1.5817
 IR Inten    --    10.4706                25.3219                12.7576
 Raman Activ --     6.4219                 1.2642                 2.7735

                    73                     74                     75
                     A                      A                      A
 Frequencies --  1167.1407              1178.4063              1180.1978
 Red. masses --     2.3328                 1.8575                 1.5700
 Frc consts  --     1.8723                 1.5197                 1.2884
 IR Inten    --    14.7396                19.9829                51.7851
 Raman Activ --     4.1228                 1.6924                 1.4226

                    76                     77                     78
                     A                      A                      A
 Frequencies --  1199.9857              1210.5127              1212.2001
 Red. masses --     1.5301                 1.2565                 1.4574
 Frc consts  --     1.2982                 1.0848                 1.2618
 IR Inten    --     7.5736                11.6816                 7.5346
 Raman Activ --     1.3851                 1.6089                 2.9244

                    79                     80                     81
                     A                      A                      A
 Frequencies --  1234.7149              1249.4204              1272.8219
 Red. masses --     1.3421                 1.3711                 1.1745
 Frc consts  --     1.2055                 1.2611                 1.1211
 IR Inten    --     6.9230                 8.9214                38.5539
 Raman Activ --     0.6380                 2.3938                 1.2931

                    82                     83                     84
                     A                      A                      A
 Frequencies --  1272.9274              1280.5099              1282.6725
 Red. masses --     1.1809                 1.2952                 1.1978
 Frc consts  --     1.1274                 1.2513                 1.1611
 IR Inten    --    13.5696                15.7498                27.8490
 Raman Activ --     1.8187                 3.8893                 5.5968

                    85                     86                     87
                     A                      A                      A
 Frequencies --  1290.4104              1294.8454              1306.8479
 Red. masses --     1.2476                 1.3193                 1.2464
 Frc consts  --     1.2240                 1.3032                 1.2541
 IR Inten    --     1.5419                 8.9942                 3.1511
 Raman Activ --     3.1651                 1.5789                 6.3206

                    88                     89                     90
                     A                      A                      A
 Frequencies --  1316.7088              1322.2927              1338.9110
 Red. masses --     1.2953                 1.2722                 1.2151
 Frc consts  --     1.3231                 1.3106                 1.2835
 IR Inten    --    51.5039                 1.0678                 4.2715
 Raman Activ --     2.4171                12.8454                 8.4277

                    91                     92                     93
                     A                      A                      A
 Frequencies --  1345.8176              1349.2557              1356.1231
 Red. masses --     1.2652                 1.2013                 1.2430
 Frc consts  --     1.3502                 1.2885                 1.3469
 IR Inten    --    49.7857                30.7767                13.2218
 Raman Activ --     4.5766                 0.7768                 3.0709

                    94                     95                     96
                     A                      A                      A
 Frequencies --  1362.3588              1369.4486              1370.8091
 Red. masses --     1.2377                 1.3912                 1.5008
 Frc consts  --     1.3534                 1.5372                 1.6616
 IR Inten    --    25.1560                 2.7996                 9.6193
 Raman Activ --     3.5069                 6.8185                 4.1638

                    97                     98                     99
                     A                      A                      A
 Frequencies --  1374.7483              1391.2068              1396.3263
 Red. masses --     1.3633                 1.6026                 1.4614
 Frc consts  --     1.5181                 1.8275                 1.6788
 IR Inten    --    19.6907                 7.5739                 4.7802
 Raman Activ --     3.7801                 3.3127                 3.3673

                   100                    101                    102
                     A                      A                      A
 Frequencies --  1402.2528              1422.0827              1436.2813
 Red. masses --     1.6415                 1.3669                 1.3280
 Frc consts  --     1.9017                 1.6286                 1.6140
 IR Inten    --    27.6735                31.2522                 4.1136
 Raman Activ --     2.5865                 1.4781                 2.0829

                   103                    104                    105
                     A                      A                      A
 Frequencies --  1464.9810              1468.3753              1476.4539
 Red. masses --     1.0976                 1.0969                 1.3687
 Frc consts  --     1.3878                 1.3935                 1.7579
 IR Inten    --     1.8431                 6.9676                27.6077
 Raman Activ --     3.2837                 5.2444                 1.0355

                   106                    107                    108
                     A                      A                      A
 Frequencies --  1485.5820              1509.4936              3254.3210
 Red. masses --     1.3142                 1.2711                 1.0592
 Frc consts  --     1.7089                 1.7064                 6.6091
 IR Inten    --    28.1498                35.7835                32.5496
 Raman Activ --     0.8776                 1.5365                79.7628

                   109                    110                    111
                     A                      A                      A
 Frequencies --  3260.2491              3262.0498              3264.7309
 Red. masses --     1.0776                 1.0615                 1.0804
 Frc consts  --     6.7487                 6.6552                 6.7850
 IR Inten    --    22.5037                29.8270                50.7318
 Raman Activ --    69.5574               112.7964                38.6394

                   112                    113                    114
                     A                      A                      A
 Frequencies --  3269.8441              3273.4735              3276.6267
 Red. masses --     1.0823                 1.0829                 1.0840
 Frc consts  --     6.8180                 6.8369                 6.8570
 IR Inten    --    32.5388                13.8543                13.7329
 Raman Activ --     7.6945               163.3642                35.7634

                   115                    116                    117
                     A                      A                      A
 Frequencies --  3283.9545              3288.6544              3293.7446
 Red. masses --     1.0831                 1.0843                 1.0770
 Frc consts  --     6.8819                 6.9094                 6.8838
 IR Inten    --    28.4294                 4.4892               130.8874
 Raman Activ --    60.3640                81.3063               101.4890

                   118                    119                    120
                     A                      A                      A
 Frequencies --  3297.2895              3303.4642              3304.8710
 Red. masses --     1.0824                 1.0978                 1.0871
 Frc consts  --     6.9335                 7.0583                 6.9958
 IR Inten    --    95.0314                13.6851                74.6090
 Raman Activ --   172.6700                43.0163                19.1507

                   121                    122                    123
                     A                      A                      A
 Frequencies --  3308.9391              3310.4873              3319.4558
 Red. masses --     1.0699                 1.0917                 1.1060
 Frc consts  --     6.9020                 7.0491                 7.1804
 IR Inten    --   814.2359                87.3463                68.6536
 Raman Activ --    91.7980                26.8552                32.5975

                   124                    125                    126
                     A                      A                      A
 Frequencies --  3372.3899              3373.7386              3382.5622
 Red. masses --     1.0667                 1.0694                 1.0662
 Frc consts  --     7.1477                 7.1713                 7.1872
 IR Inten    --    48.0659                69.0542                44.2936
 Raman Activ --   145.6256               178.6691               132.0758

                   127                    128                    129
                     A                      A                      A
 Frequencies --  3385.8060              3890.7832              3891.6650
 Red. masses --     1.0678                 1.0674                 1.0674
 Frc consts  --     7.2123                 9.5205                 9.5244
 IR Inten    --    51.6801                72.5683                63.4165
 Raman Activ --   151.1727               117.1809               107.9259

 - Thermochemistry -
 -------------------
 Temperature   298.150 Kelvin.  Pressure   1.00000 Atm.
 Atom     1 has atomic number  8 and mass  15.99491

 Molecular mass:   342.11621 amu.
 Principal axes and moments of inertia in atomic units:
                           1         2         3
     Eigenvalues --  4410.33719********************
           X            0.99997  -0.00822  -0.00107
           Y            0.00822   0.99997  -0.00010
           Z            0.00107   0.00009   1.00000
 This molecule is an asymmetric top.
 Rotational symmetry number  1.
 Warning -- assumption of classical behavior for rotation
           may cause significant error
 Rotational temperatures (Kelvin)      0.01964     0.00695     0.00525
 Rotational constants (GHZ):           0.40921     0.14473     0.10931
    6 imaginary frequencies ignored.
 Zero-point vibrational energy     973880.8 (Joules/Mol)
                                  232.76310 (Kcal/Mol)
 Warning -- explicit consideration of  33 degrees of freedom as
           vibrations may cause significant error
 Vibrational temperatures:     35.18    56.23   104.81   136.64   148.04
          (Kelvin)            171.63   220.16   258.64   264.01   291.12
                              324.84   397.13   401.84   406.34   432.33
                              450.33   453.68   460.09   491.72   517.01
                              546.76   589.53   593.64   616.06   631.76
                              685.72   710.31   726.93   752.55   805.96
                              844.38   848.84   862.90   898.89   915.22
                              995.79  1001.91  1008.46  1030.27  1206.77
                             1215.29  1223.19  1253.67  1339.33  1362.99
                             1403.16  1408.38  1422.24  1430.32  1450.58
                             1466.65  1475.34  1519.74  1522.81  1529.95
                             1539.43  1553.30  1577.08  1581.11  1585.19
                             1593.73  1611.90  1632.36  1645.14  1650.01
                             1656.23  1679.25  1695.46  1698.04  1726.51
                             1741.66  1744.08  1776.48  1797.64  1831.30
                             1831.46  1842.37  1845.48  1856.61  1862.99
                             1880.26  1894.45  1902.48  1926.39  1936.33
                             1941.28  1951.16  1960.13  1970.33  1972.29
                             1977.95  2001.63  2009.00  2017.53  2046.06
                             2066.49  2107.78  2112.66  2124.29  2137.42
                             2171.82  4682.24  4690.77  4693.36  4697.21
                             4704.57  4709.79  4714.33  4724.87  4731.63
                             4738.96  4744.06  4752.94  4754.97  4760.82
                             4763.05  4775.95  4852.11  4854.05  4866.75
                             4871.41  5597.96  5599.23

 Zero-point correction=                           0.370932 (Hartree/Particle)
 Thermal correction to Energy=                    0.390177
 Thermal correction to Enthalpy=                  0.391121
 Thermal correction to Gibbs Free Energy=         0.323479
 Sum of electronic and zero-point Energies=          -1297.619753
 Sum of electronic and thermal Energies=             -1297.600508
 Sum of electronic and thermal Enthalpies=           -1297.599564
 Sum of electronic and thermal Free Energies=        -1297.667206

                     E (Thermal)             CV                S
                      KCal/Mol        Cal/Mol-Kelvin    Cal/Mol-Kelvin
 Total                  244.840             78.210            142.364
 Electronic               0.000              0.000              0.000
 Translational            0.889              2.981             43.384
 Rotational               0.889              2.981             35.161
 Vibrational            243.062             72.248             63.818
 Vibration     1          0.593              1.985              6.235
 Vibration     2          0.594              1.981              5.305
 Vibration     3          0.599              1.967              4.075
 Vibration     4          0.603              1.953              3.555
 Vibration     5          0.605              1.947              3.399
 Vibration     6          0.609              1.933              3.112
 Vibration     7          0.619              1.899              2.634
 Vibration     8          0.629              1.867              2.331
 Vibration     9          0.631              1.862              2.293
 Vibration    10          0.639              1.837              2.112
 Vibration    11          0.650              1.802              1.912
 Vibration    12          0.678              1.718              1.558
 Vibration    13          0.680              1.712              1.538
 Vibration    14          0.681              1.706              1.519
 Vibration    15          0.693              1.673              1.414
 Vibration    16          0.701              1.649              1.346
 Vibration    17          0.703              1.644              1.334
 Vibration    18          0.706              1.636              1.311
 Vibration    19          0.721              1.592              1.204
 Vibration    20          0.734              1.556              1.125
 Vibration    21          0.750              1.513              1.039
 Vibration    22          0.774              1.449              0.928
 Vibration    23          0.776              1.443              0.917
 Vibration    24          0.790              1.409              0.865
 Vibration    25          0.799              1.385              0.829
 Vibration    26          0.833              1.302              0.719
 Vibration    27          0.849              1.264              0.674
 Vibration    28          0.860              1.238              0.645
 Vibration    29          0.878              1.199              0.603
 Vibration    30          0.916              1.117              0.523
 Vibration    31          0.944              1.060              0.473
 Vibration    32          0.947              1.053              0.467
 Vibration    33          0.958              1.032              0.450

 Normal termination of Gaussian 09 at Wed Mar 23 08:13:20 2016.
