 Gaussian 09, Revision B.01,
 Gaussian 09:  EM64L-G09RevB.01 12-Aug-2010

 --------------------------------------------------
 # freq=raman b3lyp/6-31+g(2df,p) geom=connectivity
 --------------------------------------------------

 -------------
 450 10000.com
 -------------
 Symbolic Z-matrix:
 Charge =  0 Multiplicity = 1

                         Standard orientation:
 ---------------------------------------------------------------------
 Center     Atomic      Atomic             Coordinates (Angstroms)
 Number     Number       Type             X           Y           Z
 ---------------------------------------------------------------------
      1          8           0        4.996927   -0.400045   -1.119131
      2          6           0        4.009105   -0.152575   -0.108484
      3          6           0        3.526408    1.240727   -0.473467
      4          8           0        4.466214    2.048288    0.251249
      5          1           0        5.373446    1.661354    0.086809
      6          6           0        2.152096    1.555710    0.095735
      7          8           0        1.632141    2.749009   -0.506938
      8          1           0        2.291335    3.485694   -0.661100
      9          6           0        3.313938   -2.341653    0.591536
     10          8           0        2.360616   -3.335177    0.994734
     11          1           0        2.875871   -4.087558    1.404538
     12          6           0        2.870772   -1.150929   -0.243238
     13          8           0        1.642941   -0.776332    0.398405
     14          6           0        1.143169    0.447620   -0.160189
     15          8           0       -0.095767    0.594617    0.548237
     16          6           0       -1.323314    0.199976   -0.080984
     17          6           0       -1.908354   -1.168754    0.230448
     18          8           0       -0.950410   -2.191897   -0.073849
     19          1           0       -0.069654   -1.719592   -0.055593
     20          6           0       -3.234597   -1.394242   -0.477472
     21          8           0       -3.791883   -2.712806   -0.375273
     22          1           0       -3.031272   -3.220883   -0.779013
     23          6           0       -2.145377    2.587852    0.237226
     24          8           0       -3.200612    3.339117    0.852176
     25          1           0       -3.195998    3.408104    1.850214
     26          6           0       -2.503440    1.110873    0.216849
     27          8           0       -3.775229    0.840547   -0.391244
     28          6           0       -4.309453   -0.432199    0.001544
     29          8           0       -5.592362   -0.581231   -0.624189
     30          1           0        5.821675    0.024090   -0.871140
     31          1           0        3.760643   -1.953160    1.482843
     32          1           0        4.080417   -2.845355    0.040451
     33          1           0        2.711405   -1.431083   -1.263540
     34          1           0        4.438406   -0.173606    0.871393
     35          1           0        3.578232    1.420085   -1.527054
     36          1           0        2.240031    1.708811    1.151068
     37          1           0        0.964916    0.334697   -1.209176
     38          1           0       -6.257922   -0.127992   -0.101500
     39          1           0       -1.241139    2.726199    0.792307
     40          1           0       -2.002390    2.932243   -0.765695
     41          1           0       -2.696258    0.901567    1.248310
     42          1           0       -1.153863    0.236031   -1.136866
     43          1           0       -2.096021   -1.206579    1.283182
     44          1           0       -3.072714   -1.198958   -1.516971
     45          1           0       -4.405458   -0.481273    1.066098
 ---------------------------------------------------------------------

 SCF Done:  E(RB3LYP) =  -1297.97765698     A.U. after   14 cycles

 The electronic state is 1-A.
 Alpha  occ. eigenvalues --  -19.19615 -19.19471 -19.18927 -19.18648 -19.17352
 Alpha  occ. eigenvalues --  -19.16278 -19.15715 -19.15472 -19.14727 -19.14557
 Alpha  occ. eigenvalues --  -19.14188 -10.31820 -10.28634 -10.27437 -10.26913
 Alpha  occ. eigenvalues --  -10.26715 -10.26665 -10.25360 -10.24573 -10.23754
 Alpha  occ. eigenvalues --  -10.23616 -10.23492 -10.22519  -1.10813  -1.08676
 Alpha  occ. eigenvalues --   -1.06767  -1.05604  -1.04593  -1.03507  -1.02592
 Alpha  occ. eigenvalues --   -1.02368  -1.01233  -1.00477  -0.99885  -0.82991
 Alpha  occ. eigenvalues --   -0.81936  -0.79313  -0.77106  -0.71976  -0.69644
 Alpha  occ. eigenvalues --   -0.68372  -0.64949  -0.63777  -0.62933  -0.61224
 Alpha  occ. eigenvalues --   -0.60232  -0.57951  -0.56974  -0.55259  -0.54239
 Alpha  occ. eigenvalues --   -0.53503  -0.53183  -0.52936  -0.52488  -0.51304
 Alpha  occ. eigenvalues --   -0.50241  -0.49438  -0.48257  -0.47819  -0.47184
 Alpha  occ. eigenvalues --   -0.46285  -0.45359  -0.44781  -0.44214  -0.43395
 Alpha  occ. eigenvalues --   -0.42952  -0.42422  -0.40884  -0.40581  -0.40155
 Alpha  occ. eigenvalues --   -0.39735  -0.37815  -0.36955  -0.36744  -0.36617
 Alpha  occ. eigenvalues --   -0.35557  -0.34810  -0.34528  -0.33374  -0.32952
 Alpha  occ. eigenvalues --   -0.32106  -0.31428  -0.31275  -0.30813  -0.30460
 Alpha  occ. eigenvalues --   -0.29358  -0.28895  -0.28590  -0.27575  -0.26724
 Alpha  occ. eigenvalues --   -0.25457
 Alpha virt. eigenvalues --   -0.04925  -0.01774  -0.00852  -0.00461   0.00304
 Alpha virt. eigenvalues --    0.01311   0.01498   0.01959   0.02227   0.03104
 Alpha virt. eigenvalues --    0.03517   0.03917   0.04500   0.04857   0.05239

 Mulliken atomic charges:
              1
     1  O   -0.416898
     2  C   -0.030946
     3  C   -0.109344
     4  O   -0.420274
     5  H    0.299925
     6  C   -0.172967
     7  O   -0.483168
     8  H    0.365686
     9  C   -0.411523
    10  O   -0.445154
    11  H    0.346070
    12  C    0.010367
    13  O   -0.001120
    14  C    0.267428
    15  O   -0.044468
    16  C    0.156324
    17  C    0.109586
    18  O   -0.509057
    19  H    0.399107
    20  C   -0.147821
    21  O   -0.401649
    22  H    0.342742
    23  C   -0.330371
    24  O   -0.440581
    25  H    0.339110
    26  C   -0.426134
    27  O   -0.079619
    28  C    0.082943
    29  O   -0.438362
    30  H    0.322845
    31  H    0.125802
    32  H    0.155950
    33  H    0.136926
    34  H    0.139181
    35  H    0.156023
    36  H    0.151486
    37  H    0.134376
    38  H    0.338322
    39  H    0.173298
    40  H    0.158528
    41  H    0.098654
    42  H    0.116507
    43  H    0.125283
    44  H    0.130390
    45  H    0.126597
 Sum of Mulliken atomic charges =   0.00000

 Dipole moment (field-independent basis, Debye):
    X=              9.4310    Y=              1.0826    Z=              1.5955  Tot=              9.6261
 Quadrupole moment (field-independent basis, Debye-Ang):
   XX=           -118.6038   YY=           -147.7296   ZZ=           -134.0143
   XY=             -5.9765   XZ=            -10.4021   YZ=             -0.0628

  Exact polarizability: 230.842   3.314 194.599  -2.947  -0.248 148.059
 Approx polarizability: 276.438   4.373 253.101  -3.902  -0.692 243.743

 ******    8 imaginary frequencies (negative Signs) ******

                     1                      2                      3
                     A                      A                      A
 Frequencies --  -333.9803              -298.3663              -216.9633
 Red. masses --     1.1166                 1.7005                 1.0943
 Frc consts  --     0.0734                 0.0892                 0.0304
 IR Inten    --    92.8999                 3.0413               109.6967
 Raman Activ --     0.6951                 0.1107                 1.3823

                     4                      5                      6
                     A                      A                      A
 Frequencies --  -129.4339               -96.3365               -65.5798
 Red. masses --     1.8134                 6.4509                 6.2639
 Frc consts  --     0.0179                 0.0353                 0.0159
 IR Inten    --     5.7610                 2.8784                 2.3154
 Raman Activ --     0.2169                 0.0389                 0.1351

                     7                      8                      9
                     A                      A                      A
 Frequencies --   -47.6883               -27.7190                40.3784
 Red. masses --     6.6638                 6.7916                 6.2915
 Frc consts  --     0.0089                 0.0031                 0.0060
 IR Inten    --     0.9053                 0.2095                 0.9455
 Raman Activ --     0.0352                 0.0324                 0.1143

                    10                     11                     12
                     A                      A                      A
 Frequencies --    49.1801                94.9870               118.2801
 Red. masses --     6.4627                 6.8844                 6.5768
 Frc consts  --     0.0092                 0.0366                 0.0542
 IR Inten    --     0.3539                 0.8665                 1.5350
 Raman Activ --     0.2010                 0.1578                 0.6379

                    13                     14                     15
                     A                      A                      A
 Frequencies --   138.8037               155.3936               170.9767
 Red. masses --     5.4659                 6.7029                 6.7726
 Frc consts  --     0.0620                 0.0954                 0.1166
 IR Inten    --     1.3996                 0.9965                 3.4792
 Raman Activ --     0.2130                 0.3836                 1.5874

                    16                     17                     18
                     A                      A                      A
 Frequencies --   200.3194               205.7359               266.3762
 Red. masses --     5.4892                 7.1813                 5.5547
 Frc consts  --     0.1298                 0.1791                 0.2322
 IR Inten    --     1.4478                 1.3447                 5.0290
 Raman Activ --     0.4014                 1.1301                 0.4434

                    19                     20                     21
                     A                      A                      A
 Frequencies --   266.9614               276.0182               287.3512
 Red. masses --     5.3765                 4.5981                 6.2268
 Frc consts  --     0.2258                 0.2064                 0.3029
 IR Inten    --     6.6195                 0.6133                 0.9931
 Raman Activ --     0.3259                 0.2705                 0.5674

                    22                     23                     24
                     A                      A                      A
 Frequencies --   300.8281               317.6042               330.4240
 Red. masses --     4.9847                 6.3775                 6.5327
 Frc consts  --     0.2658                 0.3790                 0.4202
 IR Inten    --    13.1036                 3.9699                 1.4870
 Raman Activ --     0.2785                 1.9265                 3.3779

                    25                     26                     27
                     A                      A                      A
 Frequencies --   352.3887               366.5321               392.7635
 Red. masses --     6.7448                 5.8334                 4.6147
 Frc consts  --     0.4935                 0.4617                 0.4194
 IR Inten    --     6.6908                10.5621                10.8221
 Raman Activ --     1.5158                 1.5872                 3.4417

                    28                     29                     30
                     A                      A                      A
 Frequencies --   410.6256               431.0630               445.9988
 Red. masses --     6.6154                 6.0696                 3.5264
 Frc consts  --     0.6572                 0.6645                 0.4133
 IR Inten    --     2.8135                 2.3494                15.2237
 Raman Activ --     4.5650                 0.5506                 3.5576

                    31                     32                     33
                     A                      A                      A
 Frequencies --   452.1272               478.8107               507.3461
 Red. masses --     5.3590                 3.8818                 4.7357
 Frc consts  --     0.6454                 0.5243                 0.7182
 IR Inten    --     1.7921                 2.6227                 4.9103
 Raman Activ --     1.9261                 0.7424                 0.6735

                    34                     35                     36
                     A                      A                      A
 Frequencies --   529.6720               560.3311               571.4225
 Red. masses --     4.2464                 4.7072                 4.1456
 Frc consts  --     0.7019                 0.8708                 0.7975
 IR Inten    --    22.6195                11.5381                 5.0097
 Raman Activ --     7.0271                 0.3928                 3.0267

                    37                     38                     39
                     A                      A                      A
 Frequencies --   591.2585               606.8437               624.3877
 Red. masses --     3.0811                 2.7533                 2.1994
 Frc consts  --     0.6346                 0.5974                 0.5052
 IR Inten    --    35.2846                32.8924                44.6533
 Raman Activ --     1.1139                 0.3923                 0.1293

                    40                     41                     42
                     A                      A                      A
 Frequencies --   635.1686               659.7998               669.7757
 Red. masses --     2.6399                 1.6355                 4.0312
 Frc consts  --     0.6275                 0.4195                 1.0655
 IR Inten    --    52.0966                10.2059                25.0108
 Raman Activ --     0.2593                 1.4245                 0.3556

                    43                     44                     45
                     A                      A                      A
 Frequencies --   689.9289               697.3575               719.0051
 Red. masses --     1.0885                 1.0813                 1.0795
 Frc consts  --     0.3053                 0.3098                 0.3288
 IR Inten    --   117.0833                74.2226               101.4961
 Raman Activ --     1.1758                 2.6889                 1.7042

                    46                     47                     48
                     A                      A                      A
 Frequencies --   742.8131               760.8877               827.5251
 Red. masses --     1.0930                 1.1392                 2.5538
 Frc consts  --     0.3553                 0.3886                 1.0304
 IR Inten    --    30.8357               123.1743                 5.2188
 Raman Activ --     0.2552                 1.5276                 2.2039

                    49                     50                     51
                     A                      A                      A
 Frequencies --   860.1519               934.8108               953.3786
 Red. masses --     2.4990                 5.5079                 6.6925
 Frc consts  --     1.0894                 2.8358                 3.5840
 IR Inten    --     5.2741                99.1491               260.5877
 Raman Activ --     4.6545                 2.8450                 2.0955

                    52                     53                     54
                     A                      A                      A
 Frequencies --   979.1809               982.3363               985.7135
 Red. masses --     5.6741                 6.0832                 4.5403
 Frc consts  --     3.2053                 3.4586                 2.5992
 IR Inten    --    89.6206               129.7964               116.0062
 Raman Activ --     3.2804                 1.7365                 1.6855

                    55                     56                     57
                     A                      A                      A
 Frequencies --  1005.3039              1010.3753              1022.6267
 Red. masses --     5.1706                 6.1281                 3.9876
 Frc consts  --     3.0788                 3.6859                 2.4569
 IR Inten    --   262.5054               142.0508               152.7145
 Raman Activ --     1.1303                 3.8895                 1.7294

                    58                     59                     60
                     A                      A                      A
 Frequencies --  1031.7026              1040.0052              1043.4685
 Red. masses --     3.3726                 2.4079                 4.1771
 Frc consts  --     2.1151                 1.5345                 2.6797
 IR Inten    --   168.6586                79.2550                37.6647
 Raman Activ --     2.1798                 9.3856                10.1808

                    61                     62                     63
                     A                      A                      A
 Frequencies --  1054.3816              1055.3523              1068.9077
 Red. masses --     3.2895                 5.4894                 3.0209
 Frc consts  --     2.1546                 3.6022                 2.0336
 IR Inten    --     9.1225                86.8242                35.6346
 Raman Activ --     7.5904                 1.0250                 5.0868

                    64                     65                     66
                     A                      A                      A
 Frequencies --  1085.3807              1090.6405              1105.4680
 Red. masses --     2.7215                 3.8783                 2.4937
 Frc consts  --     1.8890                 2.7180                 1.7955
 IR Inten    --    56.2104                23.2175                20.2063
 Raman Activ --     6.1465                 2.4817                 5.4081

                    67                     68                     69
                     A                      A                      A
 Frequencies --  1117.4385              1123.3529              1126.7833
 Red. masses --     2.6366                 2.5180                 2.6891
 Frc consts  --     1.9397                 1.8721                 2.0116
 IR Inten    --    46.9785                 6.6124                29.4518
 Raman Activ --     3.4621                12.6404                 2.3801

                    70                     71                     72
                     A                      A                      A
 Frequencies --  1129.8605              1142.9636              1159.8975
 Red. masses --     1.6638                 2.5836                 3.8268
 Frc consts  --     1.2514                 1.9886                 3.0333
 IR Inten    --    16.6344                31.2037                53.0475
 Raman Activ --     1.0429                 4.1846                 3.1792

                    73                     74                     75
                     A                      A                      A
 Frequencies --  1171.4291              1175.3412              1182.4655
 Red. masses --     1.4626                 2.8991                 1.8830
 Frc consts  --     1.1825                 2.3596                 1.5513
 IR Inten    --    21.9327                16.5193                 5.7655
 Raman Activ --     0.7592                 3.2970                 2.7216

                    76                     77                     78
                     A                      A                      A
 Frequencies --  1186.4164              1209.5043              1222.4803
 Red. masses --     1.4792                 1.4197                 1.3914
 Frc consts  --     1.2268                 1.2236                 1.2251
 IR Inten    --     5.3474                 7.8634                 6.0799
 Raman Activ --     3.8495                 0.4537                 1.7918

                    79                     80                     81
                     A                      A                      A
 Frequencies --  1232.9769              1240.7685              1246.5833
 Red. masses --     1.1715                 1.3732                 1.2543
 Frc consts  --     1.0493                 1.2455                 1.1484
 IR Inten    --    12.6178                 6.3854                10.8022
 Raman Activ --     2.5291                 1.9481                 2.0329

                    82                     83                     84
                     A                      A                      A
 Frequencies --  1259.0757              1274.1456              1277.7795
 Red. masses --     1.2628                 1.2208                 1.3218
 Frc consts  --     1.1795                 1.1677                 1.2715
 IR Inten    --     7.7184                31.6806                26.4668
 Raman Activ --     2.5322                 3.5114                 2.3583

                    85                     86                     87
                     A                      A                      A
 Frequencies --  1280.1353              1285.5371              1300.4477
 Red. masses --     1.5158                 1.3432                 1.2905
 Frc consts  --     1.4635                 1.3079                 1.2859
 IR Inten    --     5.1901                18.0468                42.9236
 Raman Activ --     1.5608                 2.9204                 6.2512

                    88                     89                     90
                     A                      A                      A
 Frequencies --  1310.3510              1312.4626              1318.2657
 Red. masses --     1.3247                 1.3214                 1.2737
 Frc consts  --     1.3401                 1.3411                 1.3041
 IR Inten    --    31.6834                19.7021                 5.0503
 Raman Activ --     2.7452                 6.2442                 7.1016

                    91                     92                     93
                     A                      A                      A
 Frequencies --  1327.8072              1333.2711              1354.1204
 Red. masses --     1.2709                 1.3570                 1.1871
 Frc consts  --     1.3202                 1.4212                 1.2825
 IR Inten    --    11.8009                 5.0600                41.6063
 Raman Activ --     0.9660                 1.7699                 6.7553

                    94                     95                     96
                     A                      A                      A
 Frequencies --  1361.3109              1368.6917              1369.6417
 Red. masses --     1.2681                 1.1952                 1.1358
 Frc consts  --     1.3846                 1.3192                 1.2554
 IR Inten    --    25.9832                36.1192                27.8372
 Raman Activ --     4.1670                 2.0663                 3.3607

                    97                     98                     99
                     A                      A                      A
 Frequencies --  1383.6619              1385.0834              1395.5367
 Red. masses --     1.3911                 1.3404                 1.3822
 Frc consts  --     1.5692                 1.5151                 1.5860
 IR Inten    --    12.1718                19.9065                 2.6179
 Raman Activ --     2.9941                 9.1792                 1.8931

                   100                    101                    102
                     A                      A                      A
 Frequencies --  1401.1737              1413.4176              1442.9061
 Red. masses --     1.4153                 1.6486                 1.0966
 Frc consts  --     1.6371                 1.9405                 1.3452
 IR Inten    --     8.0747                14.7858                 5.1469
 Raman Activ --     2.6908                 6.5085                 4.0589

                   103                    104                    105
                     A                      A                      A
 Frequencies --  1452.4823              1464.2442              1473.6252
 Red. masses --     1.0771                 1.3136                 1.3293
 Frc consts  --     1.3389                 1.6593                 1.7007
 IR Inten    --     2.0696                62.3492                11.3631
 Raman Activ --     4.6359                 3.2637                 0.7155

                   106                    107                    108
                     A                      A                      A
 Frequencies --  1498.3706              1516.8204              3231.3504
 Red. masses --     1.2955                 1.2905                 1.0797
 Frc consts  --     1.7137                 1.7493                 6.6422
 IR Inten    --    37.0195                78.2464                16.8324
 Raman Activ --     1.4587                 1.3461                41.1477

                   109                    110                    111
                     A                      A                      A
 Frequencies --  3249.3641              3260.1954              3267.3335
 Red. masses --     1.0584                 1.0799                 1.0815
 Frc consts  --     6.5839                 6.7627                 6.8025
 IR Inten    --    46.5091                10.8132                 7.2326
 Raman Activ --    73.5054                81.5914               105.4484

                   112                    113                    114
                     A                      A                      A
 Frequencies --  3272.3505              3274.6212              3281.6868
 Red. masses --     1.0634                 1.0784                 1.0842
 Frc consts  --     6.7091                 6.8131                 6.8793
 IR Inten    --    10.3602                 9.7606                 2.0455
 Raman Activ --    29.6658                66.8078                61.8692

                   115                    116                    117
                     A                      A                      A
 Frequencies --  3285.8066              3288.7315              3290.4863
 Red. masses --     1.0877                 1.0863                 1.0892
 Frc consts  --     6.9189                 6.9223                 6.9484
 IR Inten    --     2.0320               121.4536                 6.0074
 Raman Activ --    91.7307                 5.9265                90.4734

                   118                    119                    120
                     A                      A                      A
 Frequencies --  3292.2706              3302.1026              3309.4848
 Red. masses --     1.0859                 1.0904                 1.0931
 Frc consts  --     6.9349                 7.0052                 7.0538
 IR Inten    --    11.0638                14.1024                62.2319
 Raman Activ --    36.0255                15.4833                31.5882

                   121                    122                    123
                     A                      A                      A
 Frequencies --  3324.1616              3332.4743              3339.0325
 Red. masses --     1.0681                 1.0914                 1.0657
 Frc consts  --     6.9539                 7.1409                 7.0001
 IR Inten    --   388.9576                41.0589                 8.0058
 Raman Activ --   189.6482                70.0352               115.0344

                   124                    125                    126
                     A                      A                      A
 Frequencies --  3354.7224              3355.2568              3361.9325
 Red. masses --     1.0677                 1.0857                 1.0670
 Frc consts  --     7.0794                 7.2012                 7.1058
 IR Inten    --    55.3557                16.8099                45.3031
 Raman Activ --   123.2956                56.8096               169.1067

                   127                    128                    129
                     A                      A                      A
 Frequencies --  3363.9896              3864.0896              3876.8192
 Red. masses --     1.0645                 1.0669                 1.0671
 Frc consts  --     7.0976                 9.3857                 9.4494
 IR Inten    --    28.2764                33.7908                72.9722
 Raman Activ --    60.2046               107.0924               128.6764

 - Thermochemistry -
 -------------------
 Temperature   298.150 Kelvin.  Pressure   1.00000 Atm.
 Atom     1 has atomic number  8 and mass  15.99491

 Molecular mass:   342.11621 amu.
 Principal axes and moments of inertia in atomic units:
                           1         2         3
     Eigenvalues --  4461.05384********************
           X            0.99998  -0.00546  -0.00207
           Y            0.00546   0.99999  -0.00039
           Z            0.00208   0.00037   1.00000
 This molecule is an asymmetric top.
 Rotational symmetry number  1.
 Warning -- assumption of classical behavior for rotation
           may cause significant error
 Rotational temperatures (Kelvin)      0.01942     0.00676     0.00525
 Rotational constants (GHZ):           0.40455     0.14084     0.10945
    8 imaginary frequencies ignored.
 Zero-point vibrational energy     970527.5 (Joules/Mol)
                                  231.96164 (Kcal/Mol)
 Warning -- explicit consideration of  30 degrees of freedom as
           vibrations may cause significant error
 Vibrational temperatures:     58.10    70.76   136.66   170.18   199.71
          (Kelvin)            223.58   246.00   288.21   296.01   383.26
                              384.10   397.13   413.43   432.82   456.96
                              475.41   507.01   527.36   565.10   590.80
                              620.20   641.69   650.51   688.90   729.96
                              762.08   806.19   822.15   850.69   873.11
                              898.35   913.86   949.30   963.66   992.65
                             1003.34  1034.49  1068.74  1094.75  1190.62
                             1237.57  1344.98  1371.70  1408.82  1413.36
                             1418.22  1446.41  1453.70  1471.33  1484.39
                             1496.33  1501.32  1517.02  1518.41  1537.92
                             1561.62  1569.19  1590.52  1607.74  1616.25
                             1621.19  1625.62  1644.47  1668.83  1685.42
                             1691.05  1701.30  1706.99  1740.20  1758.87
                             1773.98  1785.19  1793.55  1811.53  1833.21
                             1838.44  1841.83  1849.60  1871.05  1885.30
                             1888.34  1896.69  1910.42  1918.28  1948.27
                             1958.62  1969.24  1970.61  1990.78  1992.82
                             2007.86  2015.97  2033.59  2076.02  2089.80
                             2106.72  2120.22  2155.82  2182.36  4649.19
                             4675.10  4690.69  4700.96  4708.18  4711.44
                             4721.61  4727.54  4731.75  4734.27  4736.84
                             4750.98  4761.60  4782.72  4794.68  4804.12
                             4826.69  4827.46  4837.06  4840.02  5559.56
                             5577.87

 Zero-point correction=                           0.369654 (Hartree/Particle)
 Thermal correction to Energy=                    0.387409
 Thermal correction to Enthalpy=                  0.388353
 Thermal correction to Gibbs Free Energy=         0.324614
 Sum of electronic and zero-point Energies=          -1297.608003
 Sum of electronic and thermal Energies=             -1297.590248
 Sum of electronic and thermal Enthalpies=           -1297.589304
 Sum of electronic and thermal Free Energies=        -1297.653043

                     E (Thermal)             CV                S
                      KCal/Mol        Cal/Mol-Kelvin    Cal/Mol-Kelvin
 Total                  243.103             74.445            134.149
 Electronic               0.000              0.000              0.000
 Translational            0.889              2.981             43.384
 Rotational               0.889              2.981             35.198
 Vibrational            241.325             68.483             55.566
 Vibration     1          0.594              1.981              5.240
 Vibration     2          0.595              1.978              4.850
 Vibration     3          0.603              1.953              3.555
 Vibration     4          0.608              1.934              3.128
 Vibration     5          0.614              1.915              2.820
 Vibration     6          0.620              1.897              2.605
 Vibration     7          0.626              1.878              2.425
 Vibration     8          0.638              1.839              2.130
 Vibration     9          0.640              1.832              2.081
 Vibration    10          0.672              1.735              1.620
 Vibration    11          0.672              1.734              1.616
 Vibration    12          0.678              1.718              1.558
 Vibration    13          0.685              1.697              1.490
 Vibration    14          0.693              1.672              1.412
 Vibration    15          0.704              1.640              1.322
 Vibration    16          0.713              1.615              1.258
 Vibration    17          0.729              1.570              1.155
 Vibration    18          0.739              1.541              1.094
 Vibration    19          0.760              1.486              0.990
 Vibration    20          0.775              1.447              0.924
 Vibration    21          0.792              1.403              0.855
 Vibration    22          0.805              1.370              0.808
 Vibration    23          0.811              1.356              0.789
 Vibration    24          0.835              1.297              0.713
 Vibration    25          0.863              1.234              0.640
 Vibration    26          0.885              1.184              0.588
 Vibration    27          0.916              1.117              0.523
 Vibration    28          0.928              1.093              0.502
 Vibration    29          0.949              1.050              0.465
 Vibration    30          0.966              1.017              0.438

 Normal termination of Gaussian 09 at Tue Feb 16 07:55:44 2016.
