 Gaussian 09, Revision B.01,
 Gaussian 09:  EM64L-G09RevB.01 12-Aug-2010

 -------------------------------------------------
 # freq=raman b3lyp/6-31+g(2d,p) geom=connectivity
 -------------------------------------------------

 -----------------
 300 7061/7061.com
 -----------------
 Symbolic Z-matrix:
 Charge =  0 Multiplicity = 1

                         Standard orientation:
 ---------------------------------------------------------------------
 Center     Atomic      Atomic             Coordinates (Angstroms)
 Number     Number       Type             X           Y           Z
 ---------------------------------------------------------------------
      1          8           0       -5.053662   -0.515150    0.132211
      2          6           0       -3.771683   -0.094846   -0.357621
      3          6           0       -3.296046    1.225379    0.226503
      4          8           0       -4.249869    2.231329   -0.142859
      5          1           0       -5.152640    1.809807   -0.231792
      6          6           0       -1.836942    1.575345   -0.017819
      7          8           0       -1.581441    2.819459    0.650170
      8          1           0       -0.664573    3.132530    0.404913
      9          6           0       -3.055310   -2.576992   -0.048004
     10          8           0       -4.218553   -3.242654    0.464609
     11          1           0       -4.103672   -4.224868    0.314233
     12          6           0       -2.761979   -1.101346    0.168237
     13          8           0       -1.488856   -0.725650   -0.376309
     14          6           0       -0.913207    0.407807    0.289980
     15          8           0        0.303806    0.669252   -0.423308
     16          6           0        1.555189    0.231619    0.127785
     17          6           0        2.027968   -1.082160   -0.470295
     18          8           0        1.094575   -2.173189   -0.445023
     19          1           0        0.193760   -1.865654   -0.752912
     20          6           0        3.323296   -1.531696    0.184953
     21          8           0        3.914896   -2.806749   -0.101232
     22          1           0        4.834330   -2.756897    0.291566
     23          6           0        2.422788    2.630552   -0.054545
     24          8           0        1.199781    3.329972   -0.326793
     25          1           0        1.415092    4.303970   -0.404704
     26          6           0        2.702712    1.150410   -0.260169
     27          8           0        3.972634    0.829197    0.324873
     28          6           0        4.374506   -0.475731   -0.115496
     29          8           0        5.563755   -0.614154    0.674712
     30          1           0        6.316834   -0.758225    0.097030
     31          1           0        3.169301    3.138731   -0.628455
     32          1           0        2.624381    2.812159    0.980482
     33          1           0        2.828230    1.021805   -1.314971
     34          1           0        1.486932    0.151873    1.192624
     35          1           0        2.249379   -0.889531   -1.499261
     36          1           0        3.151312   -1.508684    1.240790
     37          1           0        4.614160   -0.463909   -1.158245
     38          1           0       -5.619736   -0.744490   -0.608439
     39          1           0       -2.210846   -3.110182    0.336038
     40          1           0       -3.064989   -2.728915   -1.107119
     41          1           0       -2.703561   -0.954077    1.226443
     42          1           0       -3.759575   -0.067121   -1.427193
     43          1           0       -3.385931    1.119393    1.287440
     44          1           0       -1.738756    1.768106   -1.065723
     45          1           0       -0.763703    0.250828    1.337790
 ---------------------------------------------------------------------

 SCF Done:  E(RB3LYP) =  -1297.95897242     A.U. after   13 cycles

 The electronic state is 1-A.
 Alpha  occ. eigenvalues --  -19.18613 -19.18586 -19.18531 -19.18356 -19.18215
 Alpha  occ. eigenvalues --  -19.16877 -19.16473 -19.16132 -19.14590 -19.14406
 Alpha  occ. eigenvalues --  -19.14286 -10.31177 -10.31005 -10.26303 -10.26153
 Alpha  occ. eigenvalues --  -10.25320 -10.25213 -10.25012 -10.24953 -10.24809
 Alpha  occ. eigenvalues --  -10.24272 -10.24110 -10.23810  -1.10315  -1.09832
 Alpha  occ. eigenvalues --   -1.05394  -1.04763  -1.04009  -1.03843  -1.02934
 Alpha  occ. eigenvalues --   -1.02506  -1.01843  -1.00965  -1.00120  -0.83237
 Alpha  occ. eigenvalues --   -0.80187  -0.79693  -0.78377  -0.72104  -0.70361
 Alpha  occ. eigenvalues --   -0.67489  -0.64858  -0.63048  -0.62098  -0.62067
 Alpha  occ. eigenvalues --   -0.60711  -0.56878  -0.55692  -0.55085  -0.54630
 Alpha  occ. eigenvalues --   -0.53690  -0.53528  -0.52889  -0.52095  -0.51142
 Alpha  occ. eigenvalues --   -0.50622  -0.49758  -0.49238  -0.48928  -0.46818
 Alpha  occ. eigenvalues --   -0.46026  -0.45398  -0.44793  -0.43866  -0.43733
 Alpha  occ. eigenvalues --   -0.42561  -0.41916  -0.41318  -0.40964  -0.39695
 Alpha  occ. eigenvalues --   -0.38392  -0.38210  -0.37367  -0.36226  -0.35699
 Alpha  occ. eigenvalues --   -0.35445  -0.35090  -0.34284  -0.33962  -0.33584
 Alpha  occ. eigenvalues --   -0.33258  -0.31619  -0.30688  -0.30494  -0.29967
 Alpha  occ. eigenvalues --   -0.29110  -0.28419  -0.28286  -0.27314  -0.27001
 Alpha  occ. eigenvalues --   -0.26248
 Alpha virt. eigenvalues --   -0.02288  -0.02150  -0.01931  -0.00344   0.00025
 Alpha virt. eigenvalues --    0.00870   0.01596   0.02187   0.03055   0.03341
 Alpha virt. eigenvalues --    0.03684   0.04101   0.04589   0.05165   0.05565

 Mulliken atomic charges:
              1
     1  O   -0.530213
     2  C   -0.037727
     3  C    0.194429
     4  O   -0.570990
     5  H    0.341240
     6  C    0.056611
     7  O   -0.570553
     8  H    0.380942
     9  C   -0.229839
    10  O   -0.509437
    11  H    0.337252
    12  C    0.187021
    13  O   -0.256681
    14  C    0.102033
    15  O   -0.213444
    16  C    0.098703
    17  C    0.259053
    18  O   -0.567928
    19  H    0.365600
    20  C    0.052343
    21  O   -0.540253
    22  H    0.344842
    23  C   -0.420679
    24  O   -0.566318
    25  H    0.363817
    26  C    0.132295
    27  O   -0.240480
    28  C    0.114872
    29  O   -0.540079
    30  H    0.337942
    31  H    0.139165
    32  H    0.151334
    33  H    0.112997
    34  H    0.113567
    35  H    0.107117
    36  H    0.122456
    37  H    0.132903
    38  H    0.338146
    39  H    0.149524
    40  H    0.135617
    41  H    0.111573
    42  H    0.122913
    43  H    0.117929
    44  H    0.133157
    45  H    0.137229
 Sum of Mulliken atomic charges =   0.00000

 Dipole moment (field-independent basis, Debye):
    X=              3.0660    Y=             -0.1480    Z=             -2.7950  Tot=              4.1514
 Quadrupole moment (field-independent basis, Debye-Ang):
   XX=           -121.3667   YY=           -138.7954   ZZ=           -138.2594
   XY=             19.5077   XZ=              3.5281   YZ=             -2.5025

  Exact polarizability: 234.363  -0.611 199.024   1.845   0.345 143.940
 Approx polarizability: 276.137   0.776 259.266   1.955   0.943 239.403

 ******    6 imaginary frequencies (negative Signs) ******

                     1                      2                      3
                     A                      A                      A
 Frequencies --  -347.1657              -329.3549              -226.3325
 Red. masses --     1.6758                 1.6760                 1.1984
 Frc consts  --     0.1190                 0.1071                 0.0362
 IR Inten    --     1.5948                 7.0086                97.3875
 Raman Activ --     0.0453                 0.0839                 0.9356

                     4                      5                      6
                     A                      A                      A
 Frequencies --  -149.3754               -69.4341               -48.7176
 Red. masses --     1.2952                 6.7640                 5.6938
 Frc consts  --     0.0170                 0.0192                 0.0080
 IR Inten    --    97.0550                 1.1471                 1.1668
 Raman Activ --     0.5415                 0.0269                 0.0375

                     7                      8                      9
                     A                      A                      A
 Frequencies --    46.9900                54.4278                64.6423
 Red. masses --     6.8935                 6.1446                 6.1362
 Frc consts  --     0.0090                 0.0107                 0.0151
 IR Inten    --     1.0878                 1.2870                 3.8251
 Raman Activ --     0.0722                 0.1988                 0.1570

                    10                     11                     12
                     A                      A                      A
 Frequencies --    81.2376               102.5754               125.0247
 Red. masses --     6.5265                 6.8244                 5.8676
 Frc consts  --     0.0254                 0.0423                 0.0540
 IR Inten    --     1.4026                 1.0809                 3.6408
 Raman Activ --     0.1164                 0.0806                 0.0697

                    13                     14                     15
                     A                      A                      A
 Frequencies --   141.7067               169.4211               185.4444
 Red. masses --     6.2990                 6.4440                 7.6565
 Frc consts  --     0.0745                 0.1090                 0.1551
 IR Inten    --     1.8378                 0.4204                 1.1008
 Raman Activ --     0.5712                 1.3972                 0.3141

                    16                     17                     18
                     A                      A                      A
 Frequencies --   192.7919               221.5158               267.3401
 Red. masses --     5.6071                 6.8205                 4.4211
 Frc consts  --     0.1228                 0.1972                 0.1862
 IR Inten    --     1.7929                 1.3886                13.9001
 Raman Activ --     0.0949                 1.5624                 0.3827

                    19                     20                     21
                     A                      A                      A
 Frequencies --   282.4111               286.9641               292.1014
 Red. masses --     5.4722                 5.0252                 4.4164
 Frc consts  --     0.2571                 0.2438                 0.2220
 IR Inten    --     2.8483                 3.8915                 0.6892
 Raman Activ --     0.2612                 0.1100                 0.1048

                    22                     23                     24
                     A                      A                      A
 Frequencies --   297.0262               313.5345               318.8736
 Red. masses --     6.5384                 4.9246                 5.8503
 Frc consts  --     0.3399                 0.2852                 0.3505
 IR Inten    --     6.4259                 1.0702                 1.9316
 Raman Activ --     1.5635                 3.4522                 3.9048

                    25                     26                     27
                     A                      A                      A
 Frequencies --   332.3128               351.8073               374.5010
 Red. masses --     5.9116                 4.1942                 6.9320
 Frc consts  --     0.3846                 0.3059                 0.5728
 IR Inten    --    11.5843                 7.6334                 2.2582
 Raman Activ --     5.6092                 0.1964                 0.9352

                    28                     29                     30
                     A                      A                      A
 Frequencies --   400.9676               407.0741               419.1406
 Red. masses --     5.2429                 5.5838                 5.4063
 Frc consts  --     0.4966                 0.5452                 0.5596
 IR Inten    --    11.6691                 7.3995                 7.7503
 Raman Activ --     1.6942                 1.0509                 4.2906

                    31                     32                     33
                     A                      A                      A
 Frequencies --   453.2468               481.9790               489.7142
 Red. masses --     4.4533                 3.8291                 4.7698
 Frc consts  --     0.5390                 0.5241                 0.6740
 IR Inten    --     2.4490                 5.3198                12.0812
 Raman Activ --     3.1599                 1.8511                 0.1491

                    34                     35                     36
                     A                      A                      A
 Frequencies --   508.8798               527.0638               560.0393
 Red. masses --     4.1101                 3.3354                 4.1588
 Frc consts  --     0.6271                 0.5459                 0.7685
 IR Inten    --     8.2413                16.3399                 7.5380
 Raman Activ --     5.3767                 3.9895                 1.2821

                    37                     38                     39
                     A                      A                      A
 Frequencies --   587.1138               597.3539               614.5938
 Red. masses --     6.5220                 2.8560                 3.9535
 Frc consts  --     1.3246                 0.6004                 0.8799
 IR Inten    --     6.5941                37.7360                11.8884
 Raman Activ --     0.6306                 0.4088                 0.6079

                    40                     41                     42
                     A                      A                      A
 Frequencies --   625.7317               682.1993               697.8126
 Red. masses --     6.7745                 5.5519                 1.0616
 Frc consts  --     1.5628                 1.5224                 0.3046
 IR Inten    --    24.6016                17.3886                87.3923
 Raman Activ --     0.9391                 1.1827                 1.9962

                    43                     44                     45
                     A                      A                      A
 Frequencies --   705.8782               712.9693               759.2897
 Red. masses --     1.0703                 1.0628                 1.0664
 Frc consts  --     0.3142                 0.3183                 0.3622
 IR Inten    --    97.3984                97.3275                85.5184
 Raman Activ --     1.5580                 1.4485                 1.3816

                    46                     47                     48
                     A                      A                      A
 Frequencies --   769.4517               822.0358               847.9597
 Red. masses --     1.0756                 1.0725                 1.8169
 Frc consts  --     0.3752                 0.4270                 0.7697
 IR Inten    --   137.4411                70.9390                 3.0569
 Raman Activ --     3.6626                 0.7048                 1.6273

                    49                     50                     51
                     A                      A                      A
 Frequencies --   866.3956               913.6213               951.5099
 Red. masses --     1.8334                 5.6884                 5.9546
 Frc consts  --     0.8109                 2.7975                 3.1764
 IR Inten    --     4.6142                82.4655                43.5159
 Raman Activ --     0.9425                 2.4736                 1.3191

                    52                     53                     54
                     A                      A                      A
 Frequencies --   967.9920               971.8081               986.9230
 Red. masses --     5.0044                 6.0762                 5.0590
 Frc consts  --     2.7628                 3.3810                 2.9032
 IR Inten    --   119.4558               110.3359                36.7197
 Raman Activ --     2.4621                 1.8266                 1.8352

                    55                     56                     57
                     A                      A                      A
 Frequencies --   995.6452              1004.4515              1014.0925
 Red. masses --     5.5842                 6.0332                 5.3372
 Frc consts  --     3.2615                 3.5864                 3.2339
 IR Inten    --   382.1906                 6.7043               157.6033
 Raman Activ --     2.3495                 0.8624                 1.3933

                    58                     59                     60
                     A                      A                      A
 Frequencies --  1025.4426              1046.9114              1063.0698
 Red. masses --     6.3751                 4.8636                 2.9567
 Frc consts  --     3.9497                 3.1407                 1.9687
 IR Inten    --   334.4720               164.1916                42.2342
 Raman Activ --     1.7916                 5.2615                 6.9310

                    61                     62                     63
                     A                      A                      A
 Frequencies --  1066.8086              1076.9275              1084.1632
 Red. masses --     5.3669                 6.0551                 2.9572
 Frc consts  --     3.5987                 4.1376                 2.0479
 IR Inten    --    54.0652                25.8850                19.4341
 Raman Activ --     1.5664                 1.1977                14.5875

                    64                     65                     66
                     A                      A                      A
 Frequencies --  1090.1935              1101.9894              1111.9401
 Red. masses --     2.6786                 2.7713                 3.2405
 Frc consts  --     1.8757                 1.9828                 2.3606
 IR Inten    --     8.8129                20.6875                75.1709
 Raman Activ --     6.5610                 4.7669                11.5851

                    67                     68                     69
                     A                      A                      A
 Frequencies --  1121.8411              1126.1050              1138.2147
 Red. masses --     2.8832                 2.4351                 1.9358
 Frc consts  --     2.1379                 1.8194                 1.4776
 IR Inten    --    12.0450                20.7682                16.1673
 Raman Activ --     8.4354                15.3140                 2.7826

                    70                     71                     72
                     A                      A                      A
 Frequencies --  1142.7333              1157.4896              1160.6363
 Red. masses --     2.3455                 2.5829                 2.3068
 Frc consts  --     1.8046                 2.0389                 1.8308
 IR Inten    --    72.1972                41.9544                30.9708
 Raman Activ --     2.8212                 3.3419                 3.0771

                    73                     74                     75
                     A                      A                      A
 Frequencies --  1171.4082              1193.1646              1196.5498
 Red. masses --     2.6509                 1.8101                 1.3566
 Frc consts  --     2.1432                 1.5183                 1.1443
 IR Inten    --    22.1747                 6.1895                 8.2239
 Raman Activ --     2.3040                 1.6387                 0.8977

                    76                     77                     78
                     A                      A                      A
 Frequencies --  1203.1804              1226.6173              1229.6427
 Red. masses --     1.9378                 1.5432                 1.4213
 Frc consts  --     1.6528                 1.3680                 1.2662
 IR Inten    --    10.7612                 6.7553                11.8008
 Raman Activ --     3.9997                 1.8150                 1.0944

                    79                     80                     81
                     A                      A                      A
 Frequencies --  1238.2721              1243.4529              1272.2098
 Red. masses --     1.2663                 1.3705                 1.2571
 Frc consts  --     1.1440                 1.2485                 1.1988
 IR Inten    --     3.6583                22.3006                33.6499
 Raman Activ --     1.6636                 1.1411                 3.7739

                    82                     83                     84
                     A                      A                      A
 Frequencies --  1281.0964              1294.5464              1296.4600
 Red. masses --     1.3223                 1.2426                 1.3350
 Frc consts  --     1.2786                 1.2269                 1.3220
 IR Inten    --    13.1859                12.7152                55.9532
 Raman Activ --     0.7053                 4.4868                 2.2698

                    85                     86                     87
                     A                      A                      A
 Frequencies --  1306.4159              1321.0401              1325.6943
 Red. masses --     1.2730                 1.2131                 1.2296
 Frc consts  --     1.2801                 1.2473                 1.2732
 IR Inten    --    22.4351                 4.6681                 7.1974
 Raman Activ --     4.6657                 6.8912                 2.1743

                    88                     89                     90
                     A                      A                      A
 Frequencies --  1327.0211              1346.8420              1351.7812
 Red. masses --     1.2365                 1.1684                 1.1635
 Frc consts  --     1.2830                 1.2487                 1.2526
 IR Inten    --     7.3170                10.3680                17.9730
 Raman Activ --     4.4003                 8.9260                 1.2315

                    91                     92                     93
                     A                      A                      A
 Frequencies --  1357.7187              1359.8944              1362.5548
 Red. masses --     1.2952                 1.1808                 1.2547
 Frc consts  --     1.4067                 1.2866                 1.3724
 IR Inten    --    42.2239                21.5959                32.8508
 Raman Activ --     7.7951                 5.9770                 3.7944

                    94                     95                     96
                     A                      A                      A
 Frequencies --  1375.5498              1380.1314              1380.6015
 Red. masses --     1.2166                 1.3928                 1.3763
 Frc consts  --     1.3563                 1.5631                 1.5456
 IR Inten    --    14.6214                11.8037                 3.1870
 Raman Activ --     3.3941                 4.1756                 5.4007

                    97                     98                     99
                     A                      A                      A
 Frequencies --  1386.9958              1395.9649              1420.3960
 Red. masses --     1.1629                 1.4983                 1.3171
 Frc consts  --     1.3181                 1.7203                 1.5656
 IR Inten    --    16.5499                 8.5047                 5.0501
 Raman Activ --     1.9937                 3.4561                 3.0243

                   100                    101                    102
                     A                      A                      A
 Frequencies --  1439.2407              1455.4556              1461.3995
 Red. masses --     1.3992                 1.2884                 1.1991
 Frc consts  --     1.7076                 1.6081                 1.5089
 IR Inten    --    39.4615                17.0849                19.3252
 Raman Activ --     1.1827                 1.8980                 3.8981

                   103                    104                    105
                     A                      A                      A
 Frequencies --  1467.2980              1469.4309              1476.1169
 Red. masses --     1.2460                 1.1689                 1.2818
 Frc consts  --     1.5805                 1.4870                 1.6455
 IR Inten    --    18.1241                 8.3230                 7.2517
 Raman Activ --     2.0225                 4.7464                 0.5416

                   106                    107                    108
                     A                      A                      A
 Frequencies --  1477.1210              1495.2667              3243.8012
 Red. masses --     1.4013                 1.3078                 1.0829
 Frc consts  --     1.8014                 1.7227                 6.7134
 IR Inten    --    49.9550                44.0513                 6.1165
 Raman Activ --     1.7399                 1.1214                 5.6485

                   109                    110                    111
                     A                      A                      A
 Frequencies --  3249.7955              3250.0554              3257.1864
 Red. masses --     1.0577                 1.0611                 1.0794
 Frc consts  --     6.5816                 6.6039                 6.7473
 IR Inten    --    58.7265                28.4706                19.4820
 Raman Activ --    94.9491                76.9404                54.5590

                   112                    113                    114
                     A                      A                      A
 Frequencies --  3265.1572              3269.0130              3273.1884
 Red. masses --     1.0808                 1.0814                 1.0829
 Frc consts  --     6.7890                 6.8085                 6.8360
 IR Inten    --    15.4045                11.2615                 3.8473
 Raman Activ --   118.6733               142.1053                45.1067

                   115                    116                    117
                     A                      A                      A
 Frequencies --  3283.5499              3289.4970              3295.7464
 Red. masses --     1.0837                 1.0862                 1.0897
 Frc consts  --     6.8839                 6.9250                 6.9737
 IR Inten    --     4.7026                14.4349                21.0518
 Raman Activ --    15.9037                68.5817                48.6781

                   118                    119                    120
                     A                      A                      A
 Frequencies --  3297.0768              3300.7153              3304.6276
 Red. masses --     1.0898                 1.0958                 1.0920
 Frc consts  --     6.9801                 7.0337                 7.0259
 IR Inten    --    21.9497                 6.2512                77.1150
 Raman Activ --    16.6292                36.7532                10.6175

                   121                    122                    123
                     A                      A                      A
 Frequencies --  3307.2950              3333.0633              3337.8885
 Red. masses --     1.1021                 1.0675                 1.0674
 Frc consts  --     7.1024                 6.9874                 7.0069
 IR Inten    --    95.6091                83.3852               578.3430
 Raman Activ --    50.8131               325.5519                34.2249

                   124                    125                    126
                     A                      A                      A
 Frequencies --  3346.6365              3356.8611              3362.4253
 Red. masses --     1.0653                 1.0661                 1.0673
 Frc consts  --     7.0300                 7.0781                 7.1097
 IR Inten    --    42.8441                35.7148                57.5270
 Raman Activ --   104.4642                99.6380               145.4611

                   127                    128                    129
                     A                      A                      A
 Frequencies --  3363.3044              3889.7255              3891.3086
 Red. masses --     1.0672                 1.0676                 1.0674
 Frc consts  --     7.1125                 9.5170                 9.5232
 IR Inten    --    51.1531                76.1988                71.9148
 Raman Activ --   159.7773                89.8807               123.3857

 - Thermochemistry -
 -------------------
 Temperature   298.150 Kelvin.  Pressure   1.00000 Atm.
 Atom     1 has atomic number  8 and mass  15.99491

 Molecular mass:   342.11621 amu.
 Principal axes and moments of inertia in atomic units:
                           1         2         3
     Eigenvalues --  4445.30844********************
           X            0.99996   0.00867  -0.00019
           Y           -0.00867   0.99996  -0.00073
           Z            0.00018   0.00073   1.00000
 This molecule is an asymmetric top.
 Rotational symmetry number  1.
 Warning -- assumption of classical behavior for rotation
           may cause significant error
 Rotational temperatures (Kelvin)      0.01948     0.00681     0.00517
 Rotational constants (GHZ):           0.40599     0.14183     0.10773
    6 imaginary frequencies ignored.
 Zero-point vibrational energy     975641.4 (Joules/Mol)
                                  233.18388 (Kcal/Mol)
 Warning -- explicit consideration of  33 degrees of freedom as
           vibrations may cause significant error
 Vibrational temperatures:     67.61    78.31    93.01   116.88   147.58
          (Kelvin)            179.88   203.88   243.76   266.81   277.38
                              318.71   384.64   406.33   412.88   420.27
                              427.35   451.11   458.79   478.12   506.17
                              538.82   576.90   585.69   603.05   652.12
                              693.46   704.59   732.16   758.33   805.77
                              844.72   859.46   884.26   900.29   981.53
                             1004.00  1015.60  1025.80  1092.45  1107.07
                             1182.72  1220.02  1246.55  1314.50  1369.01
                             1392.72  1398.21  1419.96  1432.51  1445.18
                             1459.05  1475.38  1506.27  1529.52  1534.90
                             1549.46  1559.87  1568.54  1585.52  1599.83
                             1614.08  1620.21  1637.64  1644.14  1665.37
                             1669.89  1685.39  1716.70  1721.57  1731.11
                             1764.83  1769.18  1781.60  1789.05  1830.42
                             1843.21  1862.56  1865.31  1879.64  1900.68
                             1907.38  1909.29  1937.80  1944.91  1953.45
                             1956.58  1960.41  1979.11  1985.70  1986.38
                             1995.58  2008.48  2043.63  2070.74  2094.07
                             2102.63  2111.11  2114.18  2123.80  2125.24
                             2151.35  4667.10  4675.73  4676.10  4686.36
                             4697.83  4703.37  4709.38  4724.29  4732.85
                             4741.84  4743.75  4748.99  4754.62  4758.45
                             4795.53  4802.47  4815.06  4829.77  4837.77
                             4839.04  5596.44  5598.72

 Zero-point correction=                           0.371602 (Hartree/Particle)
 Thermal correction to Energy=                    0.390869
 Thermal correction to Enthalpy=                  0.391813
 Thermal correction to Gibbs Free Energy=         0.324628
 Sum of electronic and zero-point Energies=          -1297.587370
 Sum of electronic and thermal Energies=             -1297.568103
 Sum of electronic and thermal Enthalpies=           -1297.567159
 Sum of electronic and thermal Free Energies=        -1297.634345

                     E (Thermal)             CV                S
                      KCal/Mol        Cal/Mol-Kelvin    Cal/Mol-Kelvin
 Total                  245.274             78.049            141.405
 Electronic               0.000              0.000              0.000
 Translational            0.889              2.981             43.384
 Rotational               0.889              2.981             35.204
 Vibrational            243.497             72.088             62.816
 Vibration     1          0.595              1.979              4.940
 Vibration     2          0.596              1.976              4.650
 Vibration     3          0.597              1.971              4.310
 Vibration     4          0.600              1.962              3.861
 Vibration     5          0.605              1.947              3.405
 Vibration     6          0.610              1.928              3.021
 Vibration     7          0.615              1.912              2.781
 Vibration     8          0.625              1.880              2.442
 Vibration     9          0.632              1.860              2.273
 Vibration    10          0.635              1.850              2.201
 Vibration    11          0.648              1.808              1.947
 Vibration    12          0.672              1.733              1.613
 Vibration    13          0.681              1.706              1.519
 Vibration    14          0.684              1.698              1.492
 Vibration    15          0.687              1.688              1.462
 Vibration    16          0.691              1.679              1.434
 Vibration    17          0.701              1.648              1.344
 Vibration    18          0.705              1.637              1.316
 Vibration    19          0.714              1.611              1.249
 Vibration    20          0.728              1.572              1.158
 Vibration    21          0.746              1.524              1.061
 Vibration    22          0.767              1.468              0.959
 Vibration    23          0.772              1.455              0.937
 Vibration    24          0.782              1.429              0.895
 Vibration    25          0.812              1.354              0.786
 Vibration    26          0.838              1.290              0.705
 Vibration    27          0.846              1.273              0.684
 Vibration    28          0.864              1.230              0.636
 Vibration    29          0.882              1.190              0.594
 Vibration    30          0.916              1.118              0.524
 Vibration    31          0.944              1.059              0.472
 Vibration    32          0.955              1.037              0.454
 Vibration    33          0.974              1.001              0.425

 Normal termination of Gaussian 09 at Wed Mar 23 06:03:12 2016.
