 Gaussian 09, Revision B.01,
 Gaussian 09:  EM64L-G09RevB.01 12-Aug-2010

 -------------------------------------------------
 # freq=raman b3lyp/6-31+g(2d,p) geom=connectivity
 -------------------------------------------------

 -----------------
 493 6391/6391.com
 -----------------
 Symbolic Z-matrix:
 Charge =  0 Multiplicity = 1

                         Standard orientation:
 ---------------------------------------------------------------------
 Center     Atomic      Atomic             Coordinates (Angstroms)
 Number     Number       Type             X           Y           Z
 ---------------------------------------------------------------------
      1          8           0       -4.987449   -0.302908    0.213211
      2          6           0       -3.676193    0.045578   -0.254617
      3          6           0       -3.109442    1.280422    0.427414
      4          8           0       -4.004462    2.400055    0.489304
      5          1           0       -4.902322    2.121301    0.828998
      6          6           0       -1.729703    1.612023   -0.117621
      7          8           0       -1.091158    2.786268    0.403853
      8          1           0       -0.214504    3.001012   -0.026472
      9          6           0       -3.122265   -2.562376   -0.273163
     10          8           0       -4.345776   -3.120341    0.227722
     11          1           0       -4.303539   -4.118749    0.269653
     12          6           0       -2.752345   -1.123372    0.046374
     13          8           0       -1.435132   -0.857765   -0.456586
     14          6           0       -0.916523    0.349577    0.120032
     15          8           0        0.315437    0.552071   -0.587012
     16          6           0        1.540537    0.209520    0.076436
     17          6           0        1.954999   -1.181952   -0.372516
     18          8           0        0.919824   -2.171636   -0.286052
     19          1           0        0.063593   -1.684093   -0.456450
     20          6           0        3.284460   -1.540320    0.273162
     21          8           0        3.590990   -2.926500    0.063399
     22          1           0        4.552799   -3.067812    0.297417
     23          6           0        2.319351    2.616945   -0.002491
     24          8           0        1.208312    3.300477   -0.599085
     25          1           0        1.533304    4.237678   -0.722661
     26          6           0        2.616299    1.177387   -0.391574
     27          8           0        3.919063    0.785859    0.064376
     28          6           0        4.384513   -0.561732   -0.102026
     29          8           0        5.361604   -0.605133    0.948747
     30          1           0        6.231886   -0.750888    0.570640
     31          1           0        4.804399   -0.744165   -1.069142
     32          1           0        3.140878   -1.428176    1.327537
     33          1           0        2.165028   -1.091287   -1.417776
     34          1           0        1.425011    0.250367    1.139397
     35          1           0        2.631425    1.137182   -1.460712
     36          1           0        3.196791    3.190822   -0.216179
     37          1           0        2.171241    2.635145    1.057053
     38          1           0       -5.535022   -0.560754   -0.531960
     39          1           0       -2.324547   -3.179901    0.083502
     40          1           0       -3.147448   -2.652473   -1.339066
     41          1           0       -2.649817   -1.108553    1.111348
     42          1           0       -3.708902    0.208348   -1.311658
     43          1           0       -2.950138    0.992943    1.445687
     44          1           0       -1.823870    1.742841   -1.175410
     45          1           0       -0.728401    0.215436    1.164788
 ---------------------------------------------------------------------

 SCF Done:  E(RB3LYP) =  -1297.97339288     A.U. after   13 cycles

 The electronic state is 1-A.
 Alpha  occ. eigenvalues --  -19.19917 -19.18906 -19.18085 -19.17694 -19.17461
 Alpha  occ. eigenvalues --  -19.16469 -19.16082 -19.16017 -19.14667 -19.13193
 Alpha  occ. eigenvalues --  -19.12642 -10.31288 -10.30274 -10.26071 -10.25746
 Alpha  occ. eigenvalues --  -10.25344 -10.25225 -10.25094 -10.24364 -10.24290
 Alpha  occ. eigenvalues --  -10.24217 -10.24146 -10.23486  -1.10253  -1.09246
 Alpha  occ. eigenvalues --   -1.06848  -1.04893  -1.03916  -1.03008  -1.02475
 Alpha  occ. eigenvalues --   -1.02317  -1.01248  -0.99941  -0.99156  -0.82331
 Alpha  occ. eigenvalues --   -0.80859  -0.79526  -0.78220  -0.72069  -0.70316
 Alpha  occ. eigenvalues --   -0.67302  -0.64247  -0.63204  -0.62564  -0.61265
 Alpha  occ. eigenvalues --   -0.60352  -0.56980  -0.56392  -0.55013  -0.54695
 Alpha  occ. eigenvalues --   -0.54019  -0.53490  -0.52813  -0.51417  -0.51304
 Alpha  occ. eigenvalues --   -0.50464  -0.49647  -0.49079  -0.48709  -0.46850
 Alpha  occ. eigenvalues --   -0.46254  -0.45133  -0.44494  -0.43602  -0.43076
 Alpha  occ. eigenvalues --   -0.42359  -0.41492  -0.40774  -0.40249  -0.39183
 Alpha  occ. eigenvalues --   -0.38774  -0.38511  -0.37812  -0.35896  -0.35496
 Alpha  occ. eigenvalues --   -0.35033  -0.34624  -0.33962  -0.33688  -0.33267
 Alpha  occ. eigenvalues --   -0.32667  -0.31700  -0.30423  -0.29680  -0.29453
 Alpha  occ. eigenvalues --   -0.28900  -0.28388  -0.27671  -0.26947  -0.26719
 Alpha  occ. eigenvalues --   -0.26047
 Alpha virt. eigenvalues --   -0.02396  -0.01982  -0.01629   0.00080   0.00386
 Alpha virt. eigenvalues --    0.00911   0.01900   0.02093   0.03035   0.03489
 Alpha virt. eigenvalues --    0.03775   0.04194   0.05119   0.05542   0.05797

 Mulliken atomic charges:
              1
     1  O   -0.530344
     2  C    0.097843
     3  C    0.142302
     4  O   -0.566795
     5  H    0.344840
     6  C   -0.069194
     7  O   -0.617115
     8  H    0.456550
     9  C   -0.282084
    10  O   -0.531680
    11  H    0.345916
    12  C    0.159949
    13  O   -0.269023
    14  C    0.180730
    15  O   -0.262548
    16  C    0.100470
    17  C    0.235340
    18  O   -0.601456
    19  H    0.415253
    20  C    0.070871
    21  O   -0.544598
    22  H    0.326963
    23  C   -0.338555
    24  O   -0.558810
    25  H    0.362885
    26  C    0.079178
    27  O   -0.239744
    28  C    0.156368
    29  O   -0.492031
    30  H    0.325702
    31  H    0.135976
    32  H    0.124028
    33  H    0.097008
    34  H    0.115279
    35  H    0.118658
    36  H    0.142864
    37  H    0.162174
    38  H    0.338305
    39  H    0.155296
    40  H    0.141329
    41  H    0.107296
    42  H    0.111772
    43  H    0.102449
    44  H    0.119226
    45  H    0.131158
 Sum of Mulliken atomic charges =   0.00000

 Dipole moment (field-independent basis, Debye):
    X=              3.4064    Y=              0.1899    Z=             -2.2036  Tot=              4.0614
 Quadrupole moment (field-independent basis, Debye-Ang):
   XX=           -112.3073   YY=           -136.2715   ZZ=           -138.6211
   XY=             16.8180   XZ=              0.2101   YZ=             -4.2412

  Exact polarizability: 234.236  -0.182 199.141   0.406   0.277 144.382
 Approx polarizability: 275.215   1.342 260.638   0.024  -0.269 239.590

 ******    8 imaginary frequencies (negative Signs) ******

                     1                      2                      3
                     A                      A                      A
 Frequencies --  -305.2403              -269.3118              -259.0637
 Red. masses --     1.5521                 1.6852                 1.1848
 Frc consts  --     0.0852                 0.0720                 0.0468
 IR Inten    --    29.9035                 2.6211                73.9587
 Raman Activ --     0.3313                 0.0250                 0.8189

                     4                      5                      6
                     A                      A                      A
 Frequencies --  -238.5638               -67.5548               -48.1774
 Red. masses --     1.1862                 6.6081                 6.4361
 Frc consts  --     0.0398                 0.0178                 0.0088
 IR Inten    --    91.5457                 0.6718                 2.4347
 Raman Activ --     1.2227                 0.0563                 0.0581

                     7                      8                      9
                     A                      A                      A
 Frequencies --   -29.4595                -8.2910                58.3409
 Red. masses --     6.5138                 6.8117                 6.4804
 Frc consts  --     0.0033                 0.0003                 0.0130
 IR Inten    --     0.4939                 0.3187                 3.7232
 Raman Activ --     0.0458                 0.0792                 0.0602

                    10                     11                     12
                     A                      A                      A
 Frequencies --    81.0432                92.2337               108.6326
 Red. masses --     6.6708                 6.7723                 7.1978
 Frc consts  --     0.0258                 0.0339                 0.0500
 IR Inten    --     1.4137                 0.1642                 1.5743
 Raman Activ --     0.1704                 0.2331                 0.0666

                    13                     14                     15
                     A                      A                      A
 Frequencies --   158.7187               175.5191               190.7511
 Red. masses --     5.7336                 6.4524                 6.8403
 Frc consts  --     0.0851                 0.1171                 0.1466
 IR Inten    --     1.7217                 2.6496                 1.6537
 Raman Activ --     0.2618                 0.2427                 0.9764

                    16                     17                     18
                     A                      A                      A
 Frequencies --   221.7839               242.2600               259.3718
 Red. masses --     6.7588                 6.0215                 4.4665
 Frc consts  --     0.1959                 0.2082                 0.1770
 IR Inten    --     0.6534                 1.5398                14.5227
 Raman Activ --     2.6537                 0.3450                 0.2088

                    19                     20                     21
                     A                      A                      A
 Frequencies --   273.1397               279.9193               298.9509
 Red. masses --     4.6510                 5.4619                 5.3384
 Frc consts  --     0.2044                 0.2521                 0.2811
 IR Inten    --     2.8605                 1.9574                12.1605
 Raman Activ --     0.1710                 0.1669                 0.5657

                    22                     23                     24
                     A                      A                      A
 Frequencies --   311.3134               316.2932               323.3513
 Red. masses --     5.0092                 6.2553                 5.2890
 Frc consts  --     0.2860                 0.3687                 0.3258
 IR Inten    --     1.9813                 0.1086                 7.7639
 Raman Activ --     3.3065                 2.8410                 3.8464

                    25                     26                     27
                     A                      A                      A
 Frequencies --   359.3109               367.3072               374.0789
 Red. masses --     5.5533                 5.9704                 5.5953
 Frc consts  --     0.4224                 0.4746                 0.4613
 IR Inten    --    12.1695                 6.6804                 4.1710
 Raman Activ --     0.7146                 0.8808                 0.6758

                    28                     29                     30
                     A                      A                      A
 Frequencies --   400.1301               425.6758               431.3845
 Red. masses --     5.8079                 5.6441                 4.7627
 Frc consts  --     0.5479                 0.6026                 0.5222
 IR Inten    --    23.0774                 1.8820                 3.7926
 Raman Activ --     2.9826                 8.0828                 1.5390

                    31                     32                     33
                     A                      A                      A
 Frequencies --   439.4245               471.8768               484.6991
 Red. masses --     5.9312                 4.2544                 4.5650
 Frc consts  --     0.6748                 0.5581                 0.6319
 IR Inten    --     2.7335                 5.7803                 5.5718
 Raman Activ --     0.4570                 4.8410                 1.2100

                    34                     35                     36
                     A                      A                      A
 Frequencies --   506.6291               521.4537               560.5120
 Red. masses --     4.0414                 3.6554                 4.4005
 Frc consts  --     0.6112                 0.5856                 0.8146
 IR Inten    --     2.9313                12.1900                11.5399
 Raman Activ --     2.7537                 3.6529                 1.6422

                    37                     38                     39
                     A                      A                      A
 Frequencies --   586.0193               599.7678               620.2285
 Red. masses --     6.2732                 3.0895                 3.8627
 Frc consts  --     1.2693                 0.6548                 0.8755
 IR Inten    --     7.0101                30.3942                10.1750
 Raman Activ --     0.5831                 0.1945                 0.2429

                    40                     41                     42
                     A                      A                      A
 Frequencies --   628.5833               670.8333               690.2263
 Red. masses --     4.7751                 1.1063                 4.5251
 Frc consts  --     1.1116                 0.2933                 1.2702
 IR Inten    --    41.5778               107.3617                12.9471
 Raman Activ --     2.0909                 1.7724                 1.6395

                    43                     44                     45
                     A                      A                      A
 Frequencies --   706.0705               715.1700               720.4216
 Red. masses --     1.0875                 1.0627                 1.1036
 Frc consts  --     0.3194                 0.3202                 0.3375
 IR Inten    --    80.6715                94.0087               115.1862
 Raman Activ --     1.8904                 1.8926                 1.6706

                    46                     47                     48
                     A                      A                      A
 Frequencies --   792.2756               840.5108               849.3529
 Red. masses --     1.0811                 1.5380                 1.8618
 Frc consts  --     0.3998                 0.6402                 0.7913
 IR Inten    --    77.5120                 6.1427                 4.2975
 Raman Activ --     1.2005                 0.3089                 0.7736

                    49                     50                     51
                     A                      A                      A
 Frequencies --   900.8440               911.2020               935.6528
 Red. masses --     1.5032                 3.0234                 5.6646
 Frc consts  --     0.7187                 1.4790                 2.9218
 IR Inten    --   128.4163               105.6661                12.6225
 Raman Activ --     0.5224                 2.7777                 0.5580

                    52                     53                     54
                     A                      A                      A
 Frequencies --   962.8996               973.0540               985.6486
 Red. masses --     5.9064                 5.3372                 4.4747
 Frc consts  --     3.2265                 2.9774                 2.5613
 IR Inten    --    63.2337               161.0384                 6.1675
 Raman Activ --     1.0170                 2.6097                 1.3574

                    55                     56                     57
                     A                      A                      A
 Frequencies --   994.6723              1003.2410              1013.9409
 Red. masses --     5.5959                 5.1415                 7.2710
 Frc consts  --     3.2620                 3.0489                 4.4042
 IR Inten    --    28.0004               135.0219               285.8619
 Raman Activ --     3.8293                 2.2874                 1.4418

                    58                     59                     60
                     A                      A                      A
 Frequencies --  1031.0936              1056.8428              1061.1455
 Red. masses --     5.7772                 4.7047                 4.3612
 Frc consts  --     3.6188                 3.0960                 2.8934
 IR Inten    --   323.9242               258.2959                68.1666
 Raman Activ --     2.7628                 3.5729                 3.6474

                    61                     62                     63
                     A                      A                      A
 Frequencies --  1070.3925              1076.0539              1084.2983
 Red. masses --     4.4477                 3.3476                 5.6813
 Frc consts  --     3.0024                 2.2838                 3.9354
 IR Inten    --     9.3220                19.5870                 8.6022
 Raman Activ --     5.7489                20.8239                 4.5266

                    64                     65                     66
                     A                      A                      A
 Frequencies --  1099.4445              1100.4811              1112.4646
 Red. masses --     2.6492                 2.7729                 2.9774
 Frc consts  --     1.8867                 1.9786                 2.1710
 IR Inten    --    26.0188               101.4584                22.4333
 Raman Activ --     1.3231                 5.6603                13.6986

                    67                     68                     69
                     A                      A                      A
 Frequencies --  1122.6440              1135.5194              1138.7634
 Red. masses --     2.4680                 1.9517                 2.7913
 Frc consts  --     1.8327                 1.4827                 2.1327
 IR Inten    --     2.0609                18.9963                39.2593
 Raman Activ --     3.5277                 6.4702                 9.3242

                    70                     71                     72
                     A                      A                      A
 Frequencies --  1147.4384              1155.7604              1159.5961
 Red. masses --     2.6812                 2.8812                 1.8916
 Frc consts  --     2.0799                 2.2676                 1.4986
 IR Inten    --    23.4522                91.9101                39.5695
 Raman Activ --     4.9352                 2.1864                 1.7521

                    73                     74                     75
                     A                      A                      A
 Frequencies --  1169.4460              1177.1111              1205.3870
 Red. masses --     1.7756                 2.0734                 1.8864
 Frc consts  --     1.4307                 1.6927                 1.6149
 IR Inten    --     8.5756                 6.9929                25.8767
 Raman Activ --     3.0978                 2.0690                 1.7265

                    76                     77                     78
                     A                      A                      A
 Frequencies --  1212.9329              1223.0513              1229.5360
 Red. masses --     1.5122                 1.3740                 1.3727
 Frc consts  --     1.3108                 1.2110                 1.2226
 IR Inten    --    17.0864                 5.5334                 1.5910
 Raman Activ --     2.3532                 1.1664                 1.3273

                    79                     80                     81
                     A                      A                      A
 Frequencies --  1239.6314              1249.6600              1270.3879
 Red. masses --     1.3031                 1.2588                 1.3280
 Frc consts  --     1.1798                 1.1582                 1.2628
 IR Inten    --     0.6072                12.9667                15.9783
 Raman Activ --     1.3983                 0.7362                 2.7998

                    82                     83                     84
                     A                      A                      A
 Frequencies --  1280.4328              1290.8162              1293.5927
 Red. masses --     1.1760                 1.2296                 1.2564
 Frc consts  --     1.1360                 1.2071                 1.2388
 IR Inten    --    13.3488                 7.7466                15.3122
 Raman Activ --     2.9459                 1.8562                 1.1486

                    85                     86                     87
                     A                      A                      A
 Frequencies --  1299.4142              1301.4942              1316.6821
 Red. masses --     1.2785                 1.1748                 1.2961
 Frc consts  --     1.2719                 1.1725                 1.3239
 IR Inten    --     8.8944                 2.8593                38.5725
 Raman Activ --     0.9247                 5.6624                 2.3226

                    88                     89                     90
                     A                      A                      A
 Frequencies --  1324.7193              1331.0294              1338.9653
 Red. masses --     1.2053                 1.1938                 1.2331
 Frc consts  --     1.2462                 1.2461                 1.3025
 IR Inten    --    12.2541                15.2952                16.6381
 Raman Activ --     5.7782                14.4429                 4.1216

                    91                     92                     93
                     A                      A                      A
 Frequencies --  1354.6463              1356.3938              1364.1889
 Red. masses --     1.2057                 1.4033                 1.4104
 Frc consts  --     1.3036                 1.5212                 1.5465
 IR Inten    --    24.4605                 6.1203                 6.2672
 Raman Activ --     2.2147                 6.7451                 3.2495

                    94                     95                     96
                     A                      A                      A
 Frequencies --  1371.0600              1372.7644              1377.1539
 Red. masses --     1.2116                 1.3782                 1.1604
 Frc consts  --     1.3420                 1.5302                 1.2967
 IR Inten    --    38.7502                38.5069                16.1814
 Raman Activ --     5.2169                 5.1730                 2.1512

                    97                     98                     99
                     A                      A                      A
 Frequencies --  1389.3469              1390.1866              1408.2199
 Red. masses --     1.3755                 1.5204                 1.3308
 Frc consts  --     1.5643                 1.7312                 1.5549
 IR Inten    --     9.5183                 5.9882                 2.7181
 Raman Activ --     3.3467                 4.5657                 6.0974

                   100                    101                    102
                     A                      A                      A
 Frequencies --  1422.3000              1442.3560              1444.9637
 Red. masses --     1.2862                 1.4556                 1.4640
 Frc consts  --     1.5330                 1.7841                 1.8010
 IR Inten    --    21.5951                32.4988                28.5801
 Raman Activ --     0.3341                 1.3031                 2.1750

                   103                    104                    105
                     A                      A                      A
 Frequencies --  1452.8882              1469.6560              1474.1237
 Red. masses --     1.4188                 1.0742                 1.0972
 Frc consts  --     1.7646                 1.3670                 1.4048
 IR Inten    --    12.0475                 6.2918                 1.5679
 Raman Activ --     1.7318                 5.0834                 3.3845

                   106                    107                    108
                     A                      A                      A
 Frequencies --  1494.0703              1517.1975              3197.1301
 Red. masses --     1.2619                 1.2621                 1.0703
 Frc consts  --     1.6596                 1.7117                 6.4461
 IR Inten    --    34.9710                55.6636              1221.9046
 Raman Activ --     1.2060                 2.0709               195.9757

                   109                    110                    111
                     A                      A                      A
 Frequencies --  3246.2346              3248.1235              3255.5751
 Red. masses --     1.0787                 1.0790                 1.0654
 Frc consts  --     6.6976                 6.7074                 6.6532
 IR Inten    --   180.2470                20.0511                34.3174
 Raman Activ --    29.6076                47.7382               171.1923

                   112                    113                    114
                     A                      A                      A
 Frequencies --  3260.5857              3262.3175              3270.7211
 Red. masses --     1.0749                 1.0603                 1.0798
 Frc consts  --     6.7332                 6.6485                 6.8059
 IR Inten    --    32.4544                10.2451                56.6119
 Raman Activ --    46.5611               194.3246                21.0346

                   115                    116                    117
                     A                      A                      A
 Frequencies --  3272.3320              3274.9717              3281.2775
 Red. masses --     1.0828                 1.0815                 1.0755
 Frc consts  --     6.8314                 6.8346                 6.8224
 IR Inten    --    18.5018                63.4699               550.5951
 Raman Activ --    76.7112                43.7463                53.4866

                   118                    119                    120
                     A                      A                      A
 Frequencies --  3286.4632              3292.6541              3297.7591
 Red. masses --     1.0830                 1.0868                 1.0866
 Frc consts  --     6.8919                 6.9422                 6.9624
 IR Inten    --   188.8852                13.3035                65.7361
 Raman Activ --    77.9171                55.0796                78.7117

                   121                    122                    123
                     A                      A                      A
 Frequencies --  3300.4659              3310.2781              3317.2285
 Red. masses --     1.0869                 1.1047                 1.1052
 Frc consts  --     6.9755                 7.1319                 7.1654
 IR Inten    --   112.9893                54.2911                50.8476
 Raman Activ --    15.2867                39.6649                31.3693

                   124                    125                    126
                     A                      A                      A
 Frequencies --  3366.8845              3368.3528              3377.1400
 Red. masses --     1.0683                 1.0659                 1.0662
 Frc consts  --     7.1351                 7.1251                 7.1644
 IR Inten    --    51.5719                22.7025                45.7752
 Raman Activ --   169.5732               149.2936               129.0988

                   127                    128                    129
                     A                      A                      A
 Frequencies --  3379.7518              3889.4270              3890.7362
 Red. masses --     1.0678                 1.0674                 1.0675
 Frc consts  --     7.1864                 9.5134                 9.5212
 IR Inten    --    58.3333                64.1086                76.8142
 Raman Activ --   157.4149               142.7702                92.2916

 - Thermochemistry -
 -------------------
 Temperature   298.150 Kelvin.  Pressure   1.00000 Atm.
 Atom     1 has atomic number  8 and mass  15.99491

 Molecular mass:   342.11621 amu.
 Principal axes and moments of inertia in atomic units:
                           1         2         3
     Eigenvalues --  4509.79826********************
           X            0.99996   0.00840  -0.00006
           Y           -0.00840   0.99996  -0.00016
           Z            0.00005   0.00016   1.00000
 This molecule is an asymmetric top.
 Rotational symmetry number  1.
 Warning -- assumption of classical behavior for rotation
           may cause significant error
 Rotational temperatures (Kelvin)      0.01921     0.00716     0.00537
 Rotational constants (GHZ):           0.40018     0.14917     0.11197
    8 imaginary frequencies ignored.
 Zero-point vibrational energy     974291.8 (Joules/Mol)
                                  232.86134 (Kcal/Mol)
 Warning -- explicit consideration of  31 degrees of freedom as
           vibrations may cause significant error
 Vibrational temperatures:     83.94   116.60   132.70   156.30   228.36
          (Kelvin)            252.53   274.45   319.10   348.56   373.18
                              392.99   402.74   430.12   447.91   455.07
                              465.23   516.97   528.47   538.22   575.70
                              612.45   620.67   632.23   678.92   697.37
                              728.93   750.25   806.45   843.15   862.93
                              892.37   904.39   965.18   993.08  1015.88
                             1028.97  1036.52  1139.91  1209.31  1222.03
                             1296.11  1311.01  1346.19  1385.40  1400.01
                             1418.13  1431.11  1443.44  1458.83  1483.51
                             1520.56  1526.75  1540.05  1548.20  1560.06
                             1581.85  1583.34  1600.59  1615.23  1633.76
                             1638.42  1650.91  1662.88  1668.40  1682.57
                             1693.60  1734.28  1745.14  1759.70  1769.03
                             1783.55  1797.98  1827.80  1842.25  1857.19
                             1861.19  1869.56  1872.56  1894.41  1905.97
                             1915.05  1926.47  1949.03  1951.55  1962.76
                             1972.65  1975.10  1981.41  1998.96  2000.17
                             2026.11  2046.37  2075.23  2078.98  2090.38
                             2114.50  2120.93  2149.63  2182.91  4599.95
                             4670.60  4673.32  4684.04  4691.25  4693.74
                             4705.83  4708.15  4711.95  4721.02  4728.48
                             4737.39  4744.73  4748.63  4762.75  4772.75
                             4844.19  4846.30  4858.95  4862.70  5596.01
                             5597.89

 Zero-point correction=                           0.371088 (Hartree/Particle)
 Thermal correction to Energy=                    0.388582
 Thermal correction to Enthalpy=                  0.389527
 Thermal correction to Gibbs Free Energy=         0.327053
 Sum of electronic and zero-point Energies=          -1297.602305
 Sum of electronic and thermal Energies=             -1297.584810
 Sum of electronic and thermal Enthalpies=           -1297.583866
 Sum of electronic and thermal Free Energies=        -1297.646340

                     E (Thermal)             CV                S
                      KCal/Mol        Cal/Mol-Kelvin    Cal/Mol-Kelvin
 Total                  243.839             73.948            131.488
 Electronic               0.000              0.000              0.000
 Translational            0.889              2.981             43.384
 Rotational               0.889              2.981             35.130
 Vibrational            242.062             67.986             52.974
 Vibration     1          0.596              1.974              4.513
 Vibration     2          0.600              1.962              3.865
 Vibration     3          0.602              1.955              3.612
 Vibration     4          0.606              1.942              3.293
 Vibration     5          0.621              1.893              2.565
 Vibration     6          0.627              1.873              2.376
 Vibration     7          0.634              1.853              2.221
 Vibration     8          0.648              1.808              1.944
 Vibration     9          0.658              1.776              1.786
 Vibration    10          0.668              1.747              1.666
 Vibration    11          0.676              1.723              1.576
 Vibration    12          0.680              1.711              1.534
 Vibration    13          0.692              1.676              1.423
 Vibration    14          0.700              1.652              1.355
 Vibration    15          0.703              1.643              1.329
 Vibration    16          0.708              1.629              1.293
 Vibration    17          0.734              1.556              1.125
 Vibration    18          0.740              1.539              1.091
 Vibration    19          0.745              1.525              1.063
 Vibration    20          0.766              1.470              0.962
 Vibration    21          0.788              1.414              0.873
 Vibration    22          0.792              1.402              0.854
 Vibration    23          0.799              1.384              0.828
 Vibration    24          0.829              1.312              0.732
 Vibration    25          0.841              1.284              0.698
 Vibration    26          0.862              1.235              0.642
 Vibration    27          0.876              1.202              0.607
 Vibration    28          0.916              1.117              0.523
 Vibration    29          0.943              1.062              0.474
 Vibration    30          0.958              1.032              0.450
 Vibration    31          0.980              0.989              0.416

 Normal termination of Gaussian 09 at Fri Apr  1 08:20:42 2016.
