 Gaussian 09, Revision B.01,
 Gaussian 09:  EM64L-G09RevB.01 12-Aug-2010

 -------------------------------------------------
 # freq=raman b3lyp/6-31+g(2d,p) geom=connectivity
 -------------------------------------------------

 -----------------
 423 7836/7836.com
 -----------------
 Symbolic Z-matrix:
 Charge =  0 Multiplicity = 1

                         Standard orientation:
 ---------------------------------------------------------------------
 Center     Atomic      Atomic             Coordinates (Angstroms)
 Number     Number       Type             X           Y           Z
 ---------------------------------------------------------------------
      1          8           0        5.051468   -0.368748   -0.450918
      2          6           0        3.830184   -0.086388    0.246798
      3          6           0        3.252620    1.225626   -0.260473
      4          8           0        4.151635    2.307850    0.021715
      5          1           0        5.110696    2.029779   -0.033763
      6          6           0        1.820969    1.502554    0.168233
      7          8           0        1.191548    2.473208   -0.679936
      8          1           0        0.323803    2.583862   -0.196138
      9          6           0        3.127221   -2.481703    0.374838
     10          8           0        4.181883   -2.990550   -0.455383
     11          1           0        4.052528   -3.981544   -0.430560
     12          6           0        2.746209   -1.092112   -0.107491
     13          8           0        1.508398   -0.857453    0.580002
     14          6           0        0.911692    0.299982   -0.023049
     15          8           0       -0.316008    0.471883    0.700293
     16          6           0       -1.529216    0.258291   -0.035997
     17          6           0       -2.002329   -1.150295    0.282378
     18          8           0       -1.071977   -2.202949   -0.012918
     19          1           0       -0.144034   -1.843158    0.085970
     20          6           0       -3.370034   -1.486856   -0.290927
     21          8           0       -3.867617   -2.706969    0.278965
     22          1           0       -4.755033   -2.932594   -0.123130
     23          6           0       -2.303463    2.655359   -0.024009
     24          8           0       -1.118906    3.318954    0.437912
     25          1           0       -1.301247    4.274834    0.207924
     26          6           0       -2.654079    1.215609    0.319012
     27          8           0       -3.852709    0.848796   -0.380717
     28          6           0       -4.379211   -0.408916    0.068216
     29          8           0       -5.591849   -0.560522   -0.683741
     30          1           0       -6.316679   -0.757249   -0.085812
     31          1           0        5.725674   -0.634381    0.178753
     32          1           0        3.463185   -2.429415    1.389380
     33          1           0        2.277335   -3.128685    0.311535
     34          1           0        2.583517   -1.102013   -1.165004
     35          1           0        3.989591   -0.050927    1.304263
     36          1           0        3.223997    1.138987   -1.326575
     37          1           0        1.794278    1.828571    1.187007
     38          1           0        0.719242    0.129421   -1.061689
     39          1           0       -3.128954    3.251686    0.304409
     40          1           0       -2.282419    2.712776   -1.092260
     41          1           0       -2.838679    1.150329    1.370944
     42          1           0       -1.322432    0.331844   -1.083246
     43          1           0       -2.125773   -1.171010    1.345031
     44          1           0       -3.304600   -1.583114   -1.354577
     45          1           0       -4.574309   -0.392909    1.120158
 ---------------------------------------------------------------------

 SCF Done:  E(RB3LYP) =  -1297.99092681     A.U. after   13 cycles

 The electronic state is 1-A.
 Alpha  occ. eigenvalues --  -19.19154 -19.18363 -19.18201 -19.18164 -19.18160
 Alpha  occ. eigenvalues --  -19.16855 -19.15953 -19.15925 -19.14509 -19.14441
 Alpha  occ. eigenvalues --  -19.13499 -10.30712 -10.30152 -10.26689 -10.25749
 Alpha  occ. eigenvalues --  -10.25395 -10.25000 -10.24712 -10.24602 -10.24105
 Alpha  occ. eigenvalues --  -10.24010 -10.23845 -10.23583  -1.10119  -1.09342
 Alpha  occ. eigenvalues --   -1.06035  -1.05240  -1.04184  -1.03628  -1.02835
 Alpha  occ. eigenvalues --   -1.02522  -1.01847  -1.00705  -1.00271  -0.82253
 Alpha  occ. eigenvalues --   -0.80275  -0.79337  -0.77635  -0.71692  -0.69534
 Alpha  occ. eigenvalues --   -0.67301  -0.65185  -0.63293  -0.62025  -0.61502
 Alpha  occ. eigenvalues --   -0.60488  -0.56669  -0.55707  -0.55238  -0.54539
 Alpha  occ. eigenvalues --   -0.54093  -0.53515  -0.52621  -0.51754  -0.51093
 Alpha  occ. eigenvalues --   -0.50788  -0.49917  -0.49086  -0.48599  -0.46522
 Alpha  occ. eigenvalues --   -0.46298  -0.45385  -0.44194  -0.43486  -0.43014
 Alpha  occ. eigenvalues --   -0.42469  -0.41775  -0.41039  -0.40277  -0.39493
 Alpha  occ. eigenvalues --   -0.39120  -0.37996  -0.37681  -0.36664  -0.36180
 Alpha  occ. eigenvalues --   -0.35613  -0.35089  -0.34746  -0.34502  -0.33633
 Alpha  occ. eigenvalues --   -0.33196  -0.31619  -0.30998  -0.30690  -0.29948
 Alpha  occ. eigenvalues --   -0.28839  -0.28696  -0.28163  -0.27466  -0.26827
 Alpha  occ. eigenvalues --   -0.25830
 Alpha virt. eigenvalues --   -0.02174  -0.01958  -0.01678  -0.00161   0.00359
 Alpha virt. eigenvalues --    0.01185   0.01917   0.02264   0.03090   0.03531
 Alpha virt. eigenvalues --    0.03764   0.04280   0.04943   0.05344   0.05693

 Mulliken atomic charges:
              1
     1  O   -0.528644
     2  C   -0.119237
     3  C    0.280240
     4  O   -0.591080
     5  H    0.341477
     6  C   -0.047763
     7  O   -0.546782
     8  H    0.422287
     9  C   -0.150549
    10  O   -0.511107
    11  H    0.336422
    12  C    0.245352
    13  O   -0.257964
    14  C   -0.059791
    15  O   -0.258183
    16  C    0.058581
    17  C    0.179483
    18  O   -0.582845
    19  H    0.380567
    20  C    0.204317
    21  O   -0.545531
    22  H    0.335581
    23  C   -0.332020
    24  O   -0.536520
    25  H    0.356863
    26  C    0.082739
    27  O   -0.245973
    28  C    0.089513
    29  O   -0.545304
    30  H    0.336309
    31  H    0.340504
    32  H    0.138777
    33  H    0.142026
    34  H    0.122178
    35  H    0.125617
    36  H    0.123710
    37  H    0.137852
    38  H    0.143872
    39  H    0.144854
    40  H    0.160206
    41  H    0.121016
    42  H    0.122888
    43  H    0.118334
    44  H    0.132139
    45  H    0.135590
 Sum of Mulliken atomic charges =   0.00000

 Dipole moment (field-independent basis, Debye):
    X=             -2.2675    Y=             -0.1474    Z=              2.3314  Tot=              3.2556
 Quadrupole moment (field-independent basis, Debye-Ang):
   XX=           -113.2864   YY=           -135.4836   ZZ=           -141.6829
   XY=            -15.0747   XZ=              2.5884   YZ=              2.1832

  Exact polarizability: 234.652   2.229 193.636   0.499  -0.324 143.444
 Approx polarizability: 275.650   2.475 252.234   0.620  -1.546 240.796

 ******    6 imaginary frequencies (negative Signs) ******

                     1                      2                      3
                     A                      A                      A
 Frequencies --  -303.8366              -258.8742              -224.8934
 Red. masses --     1.7352                 1.2473                 1.2020
 Frc consts  --     0.0944                 0.0493                 0.0358
 IR Inten    --     2.4743                93.4001               110.8700
 Raman Activ --     0.0354                 0.7533                 0.8010

                     4                      5                      6
                     A                      A                      A
 Frequencies --  -172.7148               -65.4365               -30.7984
 Red. masses --     1.8346                 6.4395                 5.9919
 Frc consts  --     0.0322                 0.0162                 0.0033
 IR Inten    --    11.7864                 1.1863                 0.7958
 Raman Activ --     0.3673                 0.0208                 0.0300

                     7                      8                      9
                     A                      A                      A
 Frequencies --    23.5207                38.4545                65.9963
 Red. masses --     6.5450                 6.7971                 6.1254
 Frc consts  --     0.0021                 0.0059                 0.0157
 IR Inten    --     0.1362                 0.0692                 4.7735
 Raman Activ --     0.0393                 0.0443                 0.0645

                    10                     11                     12
                     A                      A                      A
 Frequencies --    90.0170               101.9348               140.5214
 Red. masses --     6.5999                 6.4904                 5.5690
 Frc consts  --     0.0315                 0.0397                 0.0648
 IR Inten    --     0.2936                 0.3566                 1.9159
 Raman Activ --     0.1764                 0.1207                 0.0937

                    13                     14                     15
                     A                      A                      A
 Frequencies --   163.3351               190.8128               196.2981
 Red. masses --     6.4408                 6.0156                 6.2765
 Frc consts  --     0.1012                 0.1290                 0.1425
 IR Inten    --     3.9542                 5.1830                 0.1725
 Raman Activ --     0.6635                 1.2774                 0.4389

                    16                     17                     18
                     A                      A                      A
 Frequencies --   211.3722               230.4191               279.2785
 Red. masses --     5.9019                 6.4464                 4.7697
 Frc consts  --     0.1554                 0.2017                 0.2192
 IR Inten    --     1.6126                 1.0636                 8.8539
 Raman Activ --     0.8244                 0.7679                 0.5203

                    19                     20                     21
                     A                      A                      A
 Frequencies --   292.8981               293.4683               304.8720
 Red. masses --     5.3606                 4.6257                 5.4648
 Frc consts  --     0.2710                 0.2347                 0.2993
 IR Inten    --     2.6270                 1.7805                 3.3568
 Raman Activ --     0.2903                 0.2855                 0.8942

                    22                     23                     24
                     A                      A                      A
 Frequencies --   308.2069               313.1647               337.2501
 Red. masses --     6.1153                 4.9524                 6.5960
 Frc consts  --     0.3423                 0.2862                 0.4420
 IR Inten    --     7.5631                 3.0577                 1.7526
 Raman Activ --     0.1189                 1.9372                 2.2187

                    25                     26                     27
                     A                      A                      A
 Frequencies --   345.7759               371.7459               371.9833
 Red. masses --     6.3160                 8.2222                 4.6517
 Frc consts  --     0.4449                 0.6695                 0.3792
 IR Inten    --    11.0750                 2.8962                 2.7803
 Raman Activ --     2.5873                 3.5991                 0.6152

                    28                     29                     30
                     A                      A                      A
 Frequencies --   416.1375               427.0598               435.5428
 Red. masses --     5.8515                 5.4224                 4.6649
 Frc consts  --     0.5970                 0.5827                 0.5214
 IR Inten    --     6.9262                 3.0623                 3.2077
 Raman Activ --     2.3585                 3.8069                 2.4856

                    31                     32                     33
                     A                      A                      A
 Frequencies --   437.6850               486.9258               491.2552
 Red. masses --     4.2912                 4.9319                 3.7722
 Frc consts  --     0.4843                 0.6890                 0.5364
 IR Inten    --    18.1287                 3.2243                12.6592
 Raman Activ --     2.8115                 2.1940                 0.8400

                    34                     35                     36
                     A                      A                      A
 Frequencies --   506.3924               535.8478               568.3212
 Red. masses --     3.5860                 3.0471                 3.3316
 Frc consts  --     0.5418                 0.5155                 0.6340
 IR Inten    --    11.0903                10.1672                14.0024
 Raman Activ --     5.1920                 3.1549                 1.3451

                    37                     38                     39
                     A                      A                      A
 Frequencies --   587.7477               606.6603               615.9630
 Red. masses --     2.7625                 5.5120                 5.7409
 Frc consts  --     0.5623                 1.1952                 1.2833
 IR Inten    --    37.2199                 7.3800                42.5809
 Raman Activ --     0.2746                 0.4516                 1.1229

                    40                     41                     42
                     A                      A                      A
 Frequencies --   640.8801               687.4682               701.2221
 Red. masses --     5.4332                 5.4391                 1.0661
 Frc consts  --     1.3148                 1.5146                 0.3089
 IR Inten    --     3.8584                12.9648                73.2975
 Raman Activ --     0.6900                 0.8667                 1.7805

                    43                     44                     45
                     A                      A                      A
 Frequencies --   733.2618               738.6019               747.4159
 Red. masses --     1.0796                 1.0684                 1.1088
 Frc consts  --     0.3420                 0.3434                 0.3649
 IR Inten    --    90.5961                91.1272               128.3190
 Raman Activ --     1.2009                 2.1626                 1.4488

                    46                     47                     48
                     A                      A                      A
 Frequencies --   771.1709               864.6770               873.0117
 Red. masses --     1.0664                 1.6660                 1.6542
 Frc consts  --     0.3737                 0.7339                 0.7428
 IR Inten    --    60.9115                 9.0504                 4.1478
 Raman Activ --     0.4576                 0.6345                 0.9607

                    49                     50                     51
                     A                      A                      A
 Frequencies --   900.3100               933.8221               953.7089
 Red. masses --     1.3084                 3.8668                 4.8806
 Frc consts  --     0.6248                 1.9867                 2.6155
 IR Inten    --   102.4632               149.8046                11.9578
 Raman Activ --     0.8018                 4.4956                 1.0300

                    52                     53                     54
                     A                      A                      A
 Frequencies --   978.7491               986.9885               999.1578
 Red. masses --     4.9629                 4.6269                 7.2784
 Frc consts  --     2.8011                 2.6556                 4.2811
 IR Inten    --    87.7756                95.4713               323.7483
 Raman Activ --     3.1096                 1.9063                 1.1454

                    55                     56                     57
                     A                      A                      A
 Frequencies --  1008.9316              1012.2900              1020.9894
 Red. masses --     5.5562                 6.6678                 6.4144
 Frc consts  --     3.3323                 4.0257                 3.9396
 IR Inten    --   162.4172                61.0935                80.9937
 Raman Activ --     2.4606                 3.2445                 1.6988

                    58                     59                     60
                     A                      A                      A
 Frequencies --  1032.3079              1047.3699              1062.2472
 Red. masses --     6.4292                 6.0314                 6.8345
 Frc consts  --     4.0367                 3.8983                 4.5437
 IR Inten    --   293.0029                75.8158               169.8237
 Raman Activ --     1.4944                 4.3662                 1.9196

                    61                     62                     63
                     A                      A                      A
 Frequencies --  1066.0375              1067.3456              1082.8063
 Red. masses --     3.2390                 5.3295                 3.0917
 Frc consts  --     2.1687                 3.5772                 2.1357
 IR Inten    --     8.3074                16.5700                14.7554
 Raman Activ --    16.3019                 1.8418                13.6894

                    64                     65                     66
                     A                      A                      A
 Frequencies --  1091.9850              1103.1729              1107.5123
 Red. masses --     3.0252                 2.3539                 2.3061
 Frc consts  --     2.1254                 1.6878                 1.6666
 IR Inten    --    20.5359                43.9032                82.0914
 Raman Activ --     6.5384                 6.2458                 2.3479

                    67                     68                     69
                     A                      A                      A
 Frequencies --  1117.7232              1127.6262              1131.3781
 Red. masses --     3.2945                 2.0263                 2.7954
 Frc consts  --     2.4250                 1.5180                 2.1082
 IR Inten    --    22.9823                47.2584                28.6980
 Raman Activ --     2.4155                 4.0560                 4.6793

                    70                     71                     72
                     A                      A                      A
 Frequencies --  1133.9555              1141.8996              1144.2682
 Red. masses --     2.5351                 2.2286                 1.5988
 Frc consts  --     1.9206                 1.7121                 1.2334
 IR Inten    --    15.1011                 4.1317                 8.3625
 Raman Activ --     8.5231                 5.4046                 3.2479

                    73                     74                     75
                     A                      A                      A
 Frequencies --  1161.2196              1167.6909              1178.2834
 Red. masses --     1.5909                 1.9427                 2.2551
 Frc consts  --     1.2639                 1.5607                 1.8447
 IR Inten    --    15.7289                 6.9363                 3.9521
 Raman Activ --     1.8039                 2.2522                 2.4761

                    76                     77                     78
                     A                      A                      A
 Frequencies --  1189.3454              1214.9109              1217.5547
 Red. masses --     1.2339                 1.4454                 1.3857
 Frc consts  --     1.0284                 1.2570                 1.2103
 IR Inten    --    16.9704                 7.8618                 6.2460
 Raman Activ --     1.7748                 2.1958                 0.5206

                    79                     80                     81
                     A                      A                      A
 Frequencies --  1234.1033              1249.5555              1254.9413
 Red. masses --     1.2101                 1.2684                 1.3008
 Frc consts  --     1.0858                 1.1669                 1.2070
 IR Inten    --    25.5572                 1.2078                24.3123
 Raman Activ --     1.4417                 0.8678                 2.5932

                    82                     83                     84
                     A                      A                      A
 Frequencies --  1257.5416              1268.2845              1289.3087
 Red. masses --     1.2014                 1.2889                 1.4251
 Frc consts  --     1.1194                 1.2215                 1.3958
 IR Inten    --    14.7328                 7.8300                47.2545
 Raman Activ --     2.3539                 2.0183                 2.3482

                    85                     86                     87
                     A                      A                      A
 Frequencies --  1293.7622              1302.1222              1306.0873
 Red. masses --     1.2496                 1.2680                 1.2003
 Frc consts  --     1.2323                 1.2667                 1.2064
 IR Inten    --     9.0538                27.8563                36.8585
 Raman Activ --     0.9602                 6.5378                 3.4327

                    88                     89                     90
                     A                      A                      A
 Frequencies --  1311.3592              1319.4102              1324.6850
 Red. masses --     1.3824                 1.2703                 1.2315
 Frc consts  --     1.4007                 1.3029                 1.2733
 IR Inten    --     2.9511                19.2075                 7.1664
 Raman Activ --     2.5378                10.7728                 8.4645

                    91                     92                     93
                     A                      A                      A
 Frequencies --  1335.2902              1349.8942              1354.5581
 Red. masses --     1.3094                 1.2393                 1.2173
 Frc consts  --     1.3755                 1.3305                 1.3160
 IR Inten    --    41.9162                35.0251                24.4101
 Raman Activ --     2.7187                 2.9168                 4.1526

                    94                     95                     96
                     A                      A                      A
 Frequencies --  1357.8097              1363.0664              1373.1922
 Red. masses --     1.6436                 1.2548                 1.2467
 Frc consts  --     1.7854                 1.3736                 1.3851
 IR Inten    --     6.1799                 8.5268                30.1079
 Raman Activ --     5.4416                 6.3517                 3.9855

                    97                     98                     99
                     A                      A                      A
 Frequencies --  1374.2703              1381.5964              1400.7498
 Red. masses --     1.4250                 1.4098                 1.4401
 Frc consts  --     1.5857                 1.5855                 1.6648
 IR Inten    --     5.4592                 3.8846                11.2251
 Raman Activ --     5.0301                 4.0639                 4.8081

                   100                    101                    102
                     A                      A                      A
 Frequencies --  1411.1531              1422.3285              1473.7469
 Red. masses --     1.6089                 1.4621                 1.1091
 Frc consts  --     1.8877                 1.7427                 1.4193
 IR Inten    --    36.8956                30.6724                 8.6389
 Raman Activ --     1.9378                 1.0751                 5.2380

                   103                    104                    105
                     A                      A                      A
 Frequencies --  1477.3372              1482.6112              1492.6991
 Red. masses --     1.0728                 1.3108                 1.2940
 Frc consts  --     1.3795                 1.6976                 1.6987
 IR Inten    --     5.4991                52.7073                15.9693
 Raman Activ --     5.2191                 0.7292                 1.3824

                   106                    107                    108
                     A                      A                      A
 Frequencies --  1499.5841              1531.3976              3255.3118
 Red. masses --     1.3558                 1.2346                 1.0555
 Frc consts  --     1.7963                 1.7059                 6.5902
 IR Inten    --    18.7354                58.2544                27.3171
 Raman Activ --     0.6390                 1.2124                65.3436

                   109                    110                    111
                     A                      A                      A
 Frequencies --  3255.6770              3263.3130              3270.1253
 Red. masses --     1.0594                 1.0807                 1.0786
 Frc consts  --     6.6162                 6.7809                 6.7960
 IR Inten    --   195.4480                23.7581                78.6711
 Raman Activ --    39.2468                81.6580               176.0782

                   112                    113                    114
                     A                      A                      A
 Frequencies --  3271.4870              3274.9843              3284.4940
 Red. masses --     1.0827                 1.0697                 1.0856
 Frc consts  --     6.8270                 6.7596                 6.8999
 IR Inten    --     6.5593               426.9609                 8.0510
 Raman Activ --    66.5286               148.7753                 7.0551

                   115                    116                    117
                     A                      A                      A
 Frequencies --  3286.7480              3288.5531              3292.0329
 Red. masses --     1.0854                 1.0853                 1.0852
 Frc consts  --     6.9081                 6.9155                 6.9291
 IR Inten    --     3.6617                 3.7521                 2.1529
 Raman Activ --   128.2528                75.6242                74.6363

                   118                    119                    120
                     A                      A                      A
 Frequencies --  3296.2239              3302.7391              3304.8699
 Red. masses --     1.0867                 1.0883                 1.0875
 Frc consts  --     6.9565                 6.9944                 6.9984
 IR Inten    --     3.0660                31.5929                81.7581
 Raman Activ --    13.5992                 7.8129                10.1676

                   121                    122                    123
                     A                      A                      A
 Frequencies --  3309.7507              3319.9560              3320.5541
 Red. masses --     1.1018                 1.0841                 1.0917
 Frc consts  --     7.1112                 7.0401                 7.0921
 IR Inten    --    88.0463               216.6977               289.8476
 Raman Activ --    48.2828                80.6483               120.4709

                   124                    125                    126
                     A                      A                      A
 Frequencies --  3364.8242              3367.4401              3371.4912
 Red. masses --     1.0662                 1.0661                 1.0677
 Frc consts  --     7.1127                 7.1228                 7.1508
 IR Inten    --    40.6533                35.0467                23.8452
 Raman Activ --   117.3077               146.5198               152.9508

                   127                    128                    129
                     A                      A                      A
 Frequencies --  3375.4954              3891.2594              3893.0667
 Red. masses --     1.0662                 1.0676                 1.0674
 Frc consts  --     7.1578                 9.5240                 9.5318
 IR Inten    --    71.1757                78.1532                75.1408
 Raman Activ --   124.8971                90.6266               116.9736

 - Thermochemistry -
 -------------------
 Temperature   298.150 Kelvin.  Pressure   1.00000 Atm.
 Atom     1 has atomic number  8 and mass  15.99491

 Molecular mass:   342.11621 amu.
 Principal axes and moments of inertia in atomic units:
                           1         2         3
     Eigenvalues --  4228.62514********************
           X            0.99997  -0.00732   0.00008
           Y            0.00732   0.99997  -0.00100
           Z           -0.00008   0.00100   1.00000
 This molecule is an asymmetric top.
 Rotational symmetry number  1.
 Warning -- assumption of classical behavior for rotation
           may cause significant error
 Rotational temperatures (Kelvin)      0.02048     0.00690     0.00531
 Rotational constants (GHZ):           0.42679     0.14377     0.11072
    6 imaginary frequencies ignored.
 Zero-point vibrational energy     976625.3 (Joules/Mol)
                                  233.41905 (Kcal/Mol)
 Warning -- explicit consideration of  33 degrees of freedom as
           vibrations may cause significant error
 Vibrational temperatures:     33.84    55.33    94.95   129.51   146.66
          (Kelvin)            202.18   235.00   274.54   282.43   304.12
                              331.52   401.82   421.41   422.23   438.64
                              443.44   450.57   485.23   497.49   534.86
                              535.20   598.73   614.44   626.65   629.73
                              700.58   706.81   728.58   770.96   817.69
                              845.64   872.85   886.23   922.08   989.11
                             1008.90  1055.00  1062.68  1075.36  1109.54
                             1244.08  1256.07  1295.34  1343.56  1372.17
                             1408.20  1420.05  1437.56  1451.63  1456.46
                             1468.97  1485.26  1506.93  1528.33  1533.79
                             1535.67  1557.91  1571.12  1587.22  1593.46
                             1608.15  1622.40  1627.80  1631.51  1642.94
                             1646.34  1670.73  1680.04  1695.28  1711.20
                             1747.98  1751.79  1775.60  1797.83  1805.58
                             1809.32  1824.78  1855.03  1861.43  1873.46
                             1879.17  1886.75  1898.33  1905.92  1921.18
                             1942.19  1948.90  1953.58  1961.15  1975.71
                             1977.27  1987.81  2015.36  2030.33  2046.41
                             2120.39  2125.56  2133.14  2147.66  2157.56
                             2203.34  4683.66  4684.19  4695.17  4704.98
                             4706.93  4711.97  4725.65  4728.89  4731.49
                             4736.50  4742.53  4751.90  4754.96  4761.99
                             4776.67  4777.53  4841.23  4844.99  4850.82
                             4856.58  5598.65  5601.25

 Zero-point correction=                           0.371977 (Hartree/Particle)
 Thermal correction to Energy=                    0.390930
 Thermal correction to Enthalpy=                  0.391875
 Thermal correction to Gibbs Free Energy=         0.324773
 Sum of electronic and zero-point Energies=          -1297.618950
 Sum of electronic and thermal Energies=             -1297.599996
 Sum of electronic and thermal Enthalpies=           -1297.599052
 Sum of electronic and thermal Free Energies=        -1297.666154

                     E (Thermal)             CV                S
                      KCal/Mol        Cal/Mol-Kelvin    Cal/Mol-Kelvin
 Total                  245.312             77.447            141.227
 Electronic               0.000              0.000              0.000
 Translational            0.889              2.981             43.384
 Rotational               0.889              2.981             35.113
 Vibrational            243.535             71.485             62.729
 Vibration     1          0.593              1.985              6.312
 Vibration     2          0.594              1.982              5.337
 Vibration     3          0.597              1.970              4.269
 Vibration     4          0.602              1.956              3.660
 Vibration     5          0.604              1.948              3.417
 Vibration     6          0.615              1.913              2.797
 Vibration     7          0.623              1.887              2.511
 Vibration     8          0.634              1.853              2.220
 Vibration     9          0.636              1.845              2.168
 Vibration    10          0.643              1.824              2.032
 Vibration    11          0.652              1.795              1.876
 Vibration    12          0.680              1.712              1.538
 Vibration    13          0.688              1.687              1.457
 Vibration    14          0.688              1.686              1.454
 Vibration    15          0.696              1.664              1.390
 Vibration    16          0.698              1.658              1.372
 Vibration    17          0.701              1.649              1.346
 Vibration    18          0.718              1.601              1.225
 Vibration    19          0.724              1.584              1.185
 Vibration    20          0.743              1.530              1.073
 Vibration    21          0.744              1.530              1.072
 Vibration    22          0.779              1.435              0.905
 Vibration    23          0.789              1.411              0.868
 Vibration    24          0.796              1.393              0.841
 Vibration    25          0.798              1.388              0.834
 Vibration    26          0.843              1.279              0.692
 Vibration    27          0.847              1.269              0.680
 Vibration    28          0.862              1.236              0.642
 Vibration    29          0.891              1.171              0.574
 Vibration    30          0.924              1.100              0.507
 Vibration    31          0.945              1.058              0.471
 Vibration    32          0.965              1.018              0.438
 Vibration    33          0.976              0.998              0.423

 Normal termination of Gaussian 09 at Sun Mar 27 08:05:22 2016.
