 Gaussian 09, Revision B.01,
 Gaussian 09:  EM64L-G09RevB.01 12-Aug-2010

 -------------------------------------------------
 # freq=raman b3lyp/6-31+g(2d,p) geom=connectivity
 -------------------------------------------------

 -----------------
 300 6023/6023.com
 -----------------
 Symbolic Z-matrix:
 Charge =  0 Multiplicity = 1

                         Standard orientation:
 ---------------------------------------------------------------------
 Center     Atomic      Atomic             Coordinates (Angstroms)
 Number     Number       Type             X           Y           Z
 ---------------------------------------------------------------------
      1          8           0       -4.949447   -0.415250    0.519934
      2          6           0       -3.689957   -0.041212   -0.056421
      3          6           0       -3.148848    1.332240    0.306492
      4          8           0       -4.095924    2.319094   -0.124917
      5          1           0       -4.988707    2.080167    0.256175
      6          6           0       -1.772430    1.567153   -0.292452
      7          8           0       -1.229391    2.738456    0.334995
      8          1           0       -0.269655    2.812114    0.063317
      9          6           0       -3.216392   -2.482913   -0.256862
     10          8           0       -4.406975   -3.222657    0.049406
     11          1           0       -4.099736   -4.172165   -0.015160
     12          6           0       -2.743655   -1.164498    0.333531
     13          8           0       -1.423860   -0.906818   -0.169011
     14          6           0       -0.907821    0.395165    0.144045
     15          8           0        0.314978    0.600324   -0.578320
     16          6           0        1.518544    0.246100    0.118239
     17          6           0        2.052977   -1.114247   -0.298037
     18          8           0        0.997111   -2.083665   -0.217529
     19          1           0        0.105641   -1.636214   -0.288580
     20          6           0        3.356219   -1.618815    0.300484
     21          8           0        3.764020   -2.796461   -0.411956
     22          1           0        4.715103   -2.974761   -0.159275
     23          6           0        2.419522    2.701924    0.079816
     24          8           0        1.222559    3.255270   -0.486482
     25          1           0        1.350511    4.245522   -0.540634
     26          6           0        2.598571    1.236767   -0.283192
     27          8           0        3.780937    0.733354    0.354937
     28          6           0        4.376475   -0.528290    0.017184
     29          8           0        5.589948   -0.725246    0.757066
     30          1           0        6.300477   -0.950904    0.152229
     31          1           0        3.261930    3.254504   -0.280605
     32          1           0        2.374023    2.792794    1.144979
     33          1           0        2.734129    1.171152   -1.342540
     34          1           0        1.360467    0.276779    1.176053
     35          1           0        2.259403   -1.015222   -1.343256
     36          1           0        3.261242   -1.805328    1.349814
     37          1           0        4.605447   -0.533162   -1.028018
     38          1           0       -5.546569   -0.702434   -0.174739
     39          1           0       -2.923670   -2.449819   -1.285511
     40          1           0       -3.966980   -1.742318   -0.075098
     41          1           0       -2.708309   -1.245109    1.399904
     42          1           0       -3.802721   -0.067987   -1.120125
     43          1           0       -3.065201    1.389829    1.371662
     44          1           0       -1.809510    1.663089   -1.357497
     45          1           0       -0.718192    0.462021    1.194983
 ---------------------------------------------------------------------

 SCF Done:  E(RB3LYP) =  -1297.81769980     A.U. after   13 cycles

 The electronic state is 1-A.
 Alpha  occ. eigenvalues --  -19.19446 -19.19162 -19.18496 -19.18477 -19.18215
 Alpha  occ. eigenvalues --  -19.18039 -19.16938 -19.16032 -19.15520 -19.13329
 Alpha  occ. eigenvalues --  -19.12220 -10.30708 -10.30268 -10.28047 -10.26219
 Alpha  occ. eigenvalues --  -10.25822 -10.25511 -10.25295 -10.24633 -10.24503
 Alpha  occ. eigenvalues --  -10.24406 -10.23429 -10.20861  -1.10121  -1.08577
 Alpha  occ. eigenvalues --   -1.07774  -1.06285  -1.04682  -1.04213  -1.03441
 Alpha  occ. eigenvalues --   -1.02797  -1.02596  -1.00371  -0.99188  -0.84069
 Alpha  occ. eigenvalues --   -0.81431  -0.79582  -0.78713  -0.72952  -0.70684
 Alpha  occ. eigenvalues --   -0.67461  -0.64985  -0.63039  -0.62876  -0.61413
 Alpha  occ. eigenvalues --   -0.60337  -0.57181  -0.56530  -0.55807  -0.55525
 Alpha  occ. eigenvalues --   -0.54664  -0.53599  -0.53317  -0.51451  -0.50863
 Alpha  occ. eigenvalues --   -0.50719  -0.50277  -0.50092  -0.48000  -0.47262
 Alpha  occ. eigenvalues --   -0.46754  -0.45330  -0.44583  -0.43597  -0.43398
 Alpha  occ. eigenvalues --   -0.42862  -0.41523  -0.41132  -0.40036  -0.39710
 Alpha  occ. eigenvalues --   -0.39089  -0.38147  -0.37691  -0.36742  -0.36114
 Alpha  occ. eigenvalues --   -0.35777  -0.34329  -0.34092  -0.33654  -0.33184
 Alpha  occ. eigenvalues --   -0.33058  -0.32369  -0.31295  -0.30097  -0.30016
 Alpha  occ. eigenvalues --   -0.29811  -0.28687  -0.27284  -0.27018  -0.25581
 Alpha  occ. eigenvalues --   -0.22071
 Alpha virt. eigenvalues --   -0.02579  -0.02316  -0.02120  -0.00274   0.00400
 Alpha virt. eigenvalues --    0.00889   0.01891   0.02183   0.03270   0.03463
 Alpha virt. eigenvalues --    0.03845   0.04201   0.04757   0.05496   0.05666

 Mulliken atomic charges:
              1
     1  O   -0.554861
     2  C   -0.079630
     3  C    0.257023
     4  O   -0.553447
     5  H    0.337369
     6  C   -0.032888
     7  O   -0.591668
     8  H    0.443461
     9  C   -0.454829
    10  O   -0.510717
    11  H    0.328443
    12  C    0.064401
    13  O   -0.304416
    14  C    0.275425
    15  O   -0.239965
    16  C    0.062950
    17  C    0.340297
    18  O   -0.630725
    19  H    0.422526
    20  C    0.139693
    21  O   -0.529143
    22  H    0.325572
    23  C   -0.256138
    24  O   -0.545876
    25  H    0.364109
    26  C   -0.093579
    27  O   -0.278925
    28  C    0.085619
    29  O   -0.536285
    30  H    0.337407
    31  H    0.148990
    32  H    0.159190
    33  H    0.119958
    34  H    0.112149
    35  H    0.105645
    36  H    0.130280
    37  H    0.128254
    38  H    0.360917
    39  H    0.143532
    40  H    0.329906
    41  H    0.138191
    42  H    0.143709
    43  H    0.124316
    44  H    0.136791
    45  H    0.126970
 Sum of Mulliken atomic charges =   0.00000

 Dipole moment (field-independent basis, Debye):
    X=              2.1279    Y=              1.6243    Z=             -1.3034  Tot=              2.9774
 Quadrupole moment (field-independent basis, Debye-Ang):
   XX=           -111.9282   YY=           -139.4847   ZZ=           -139.6428
   XY=             12.1857   XZ=             -3.8680   YZ=             -1.7994

  Exact polarizability: 237.378   1.620 204.573  -0.228   1.327 143.910
 Approx polarizability: 282.263  -0.387 270.009  -1.496   1.480 239.727

 ******    8 imaginary frequencies (negative Signs) ******

                     1                      2                      3
                     A                      A                      A
 Frequencies -- -1001.8669              -418.3756              -239.8756
 Red. masses --     1.0584                 4.6069                 1.2601
 Frc consts  --     0.6259                 0.4751                 0.0427
 IR Inten    --   111.3184                 7.7889               106.3256
 Raman Activ --    40.0352                 1.2332                 0.8628

                     4                      5                      6
                     A                      A                      A
 Frequencies --  -208.4780              -130.4500               -87.5887
 Red. masses --     1.8989                 6.2552                 6.3904
 Frc consts  --     0.0486                 0.0627                 0.0289
 IR Inten    --     1.8785                 0.7114                 0.5605
 Raman Activ --     0.1053                 0.2087                 0.1254

                     7                      8                      9
                     A                      A                      A
 Frequencies --   -71.7835               -20.9583                29.0091
 Red. masses --     6.5398                 6.1030                 6.8915
 Frc consts  --     0.0199                 0.0016                 0.0034
 IR Inten    --     1.9876                 3.7044                 0.6206
 Raman Activ --     0.0129                 0.0947                 0.0521

                    10                     11                     12
                     A                      A                      A
 Frequencies --    62.9864                84.4905               123.8474
 Red. masses --     6.8902                 6.2841                 5.5191
 Frc consts  --     0.0161                 0.0264                 0.0499
 IR Inten    --     0.9964                 0.2841                 2.5698
 Raman Activ --     0.4254                 0.4137                 0.1118

                    13                     14                     15
                     A                      A                      A
 Frequencies --   137.5719               173.8546               190.8987
 Red. masses --     5.7710                 5.0076                 2.4261
 Frc consts  --     0.0644                 0.0892                 0.0521
 IR Inten    --     7.9005                12.2523                90.3192
 Raman Activ --     0.0423                 0.5408                 1.2509

                    16                     17                     18
                     A                      A                      A
 Frequencies --   209.6144               214.8742               227.2664
 Red. masses --     4.1969                 4.9107                 5.2343
 Frc consts  --     0.1086                 0.1336                 0.1593
 IR Inten    --    17.0088                10.5719                13.2561
 Raman Activ --     1.0650                 1.8627                 1.6302

                    19                     20                     21
                     A                      A                      A
 Frequencies --   237.7959               276.6782               290.6190
 Red. masses --     4.6647                 4.3352                 3.8776
 Frc consts  --     0.1554                 0.1955                 0.1930
 IR Inten    --    13.1434                 2.0587                 8.3952
 Raman Activ --     1.0181                 0.3159                 0.6552

                    22                     23                     24
                     A                      A                      A
 Frequencies --   309.5159               316.9084               327.5357
 Red. masses --     5.0046                 6.3175                 4.3388
 Frc consts  --     0.2825                 0.3738                 0.2742
 IR Inten    --     3.7137                 2.9631                14.1212
 Raman Activ --     2.0334                 3.8561                 0.2473

                    25                     26                     27
                     A                      A                      A
 Frequencies --   337.8958               358.0282               369.5217
 Red. masses --     3.6524                 5.3820                 4.5803
 Frc consts  --     0.2457                 0.4065                 0.3685
 IR Inten    --     2.2470                 0.9222                 2.4878
 Raman Activ --     1.0011                 1.0443                 0.6427

                    28                     29                     30
                     A                      A                      A
 Frequencies --   393.8888               408.6922               414.7503
 Red. masses --     5.9005                 5.9107                 6.3830
 Frc consts  --     0.5394                 0.5817                 0.6469
 IR Inten    --    10.8123                 6.6557                 5.6567
 Raman Activ --     4.9811                 1.9253                 8.8327

                    31                     32                     33
                     A                      A                      A
 Frequencies --   435.6196               446.4509               464.3549
 Red. masses --     4.8037                 4.8887                 4.4254
 Frc consts  --     0.5371                 0.5741                 0.5622
 IR Inten    --     3.8638                10.3437                 7.8343
 Raman Activ --     1.5632                 3.8698                 2.1467

                    34                     35                     36
                     A                      A                      A
 Frequencies --   493.1004               515.2267               561.0455
 Red. masses --     3.5451                 4.4176                 4.1469
 Frc consts  --     0.5079                 0.6909                 0.7691
 IR Inten    --     8.6214                 8.7806                 7.7366
 Raman Activ --     1.9897                 1.2742                 4.6418

                    37                     38                     39
                     A                      A                      A
 Frequencies --   574.1821               591.9641               602.8534
 Red. masses --     3.8918                 5.5362                 3.0393
 Frc consts  --     0.7560                 1.1430                 0.6508
 IR Inten    --    13.6092                27.5236                15.7241
 Raman Activ --     0.6348                 0.8808                 0.3789

                    40                     41                     42
                     A                      A                      A
 Frequencies --   605.5270               630.8635               674.3773
 Red. masses --     4.7834                 3.7786                 5.1748
 Frc consts  --     1.0334                 0.8860                 1.3866
 IR Inten    --    23.1126                13.7585                 9.5962
 Raman Activ --     1.4554                 1.6768                 0.8371

                    43                     44                     45
                     A                      A                      A
 Frequencies --   737.2219               739.0391               741.8612
 Red. masses --     1.0722                 1.0679                 1.0879
 Frc consts  --     0.3434                 0.3436                 0.3528
 IR Inten    --    87.2779                84.6233                37.3487
 Raman Activ --     1.7532                 1.8889                 1.3762

                    46                     47                     48
                     A                      A                      A
 Frequencies --   744.6493               753.8585               864.5845
 Red. masses --     1.0833                 1.1275                 1.5777
 Frc consts  --     0.3539                 0.3775                 0.6948
 IR Inten    --   130.7430               139.1229                 5.6179
 Raman Activ --     1.6106                 2.9443                 0.8592

                    49                     50                     51
                     A                      A                      A
 Frequencies --   908.5693               917.1015               921.1738
 Red. masses --     4.4472                 1.4017                 3.4317
 Frc consts  --     2.1630                 0.6946                 1.7157
 IR Inten    --   247.5536               129.3381               108.7858
 Raman Activ --     5.7634                 0.9170                 8.1001

                    52                     53                     54
                     A                      A                      A
 Frequencies --   947.3835               972.1867               979.8794
 Red. masses --     4.6664                 5.1971                 4.5651
 Frc consts  --     2.4676                 2.8941                 2.5826
 IR Inten    --    16.4311                 3.7265               221.8482
 Raman Activ --     0.3050                 2.1346                 1.0344

                    55                     56                     57
                     A                      A                      A
 Frequencies --   982.5159               996.5566              1009.6983
 Red. masses --     5.7449                 5.8393                 5.7147
 Frc consts  --     3.2675                 3.4168                 3.4326
 IR Inten    --   289.9959               184.9773                57.5481
 Raman Activ --     2.7853                 2.7866                 3.1272

                    58                     59                     60
                     A                      A                      A
 Frequencies --  1021.3355              1034.0801              1043.9236
 Red. masses --     5.5509                 2.6494                 6.5177
 Frc consts  --     3.4116                 1.6692                 4.1849
 IR Inten    --    89.7512                11.4010               238.6652
 Raman Activ --     2.2057                 3.3647                 4.4295

                    61                     62                     63
                     A                      A                      A
 Frequencies --  1052.4719              1060.5730              1061.6747
 Red. masses --     3.7522                 4.3230                 3.4103
 Frc consts  --     2.4488                 2.8650                 2.2648
 IR Inten    --   123.7827               125.9388                25.9039
 Raman Activ --    16.8035                 4.2716                 5.4248

                    64                     65                     66
                     A                      A                      A
 Frequencies --  1068.2892              1078.4474              1090.1300
 Red. masses --     4.6827                 2.6402                 2.1351
 Frc consts  --     3.1487                 1.8092                 1.4950
 IR Inten    --    30.5100                 6.2888                75.6769
 Raman Activ --    22.9777                 1.5263                 3.7614

                    67                     68                     69
                     A                      A                      A
 Frequencies --  1098.0786              1110.4217              1119.2401
 Red. masses --     2.0931                 2.3340                 2.5202
 Frc consts  --     1.4870                 1.6956                 1.8601
 IR Inten    --    30.4271                27.2083                13.6044
 Raman Activ --    11.0033                 3.5262                 8.8510

                    70                     71                     72
                     A                      A                      A
 Frequencies --  1120.9428              1136.9857              1142.9682
 Red. masses --     3.0138                 2.8667                 1.7694
 Frc consts  --     2.2312                 2.1834                 1.3619
 IR Inten    --    41.2140                10.2430                 4.6890
 Raman Activ --     1.3402                 7.0490                 1.7998

                    73                     74                     75
                     A                      A                      A
 Frequencies --  1147.2078              1156.8630              1165.6026
 Red. masses --     2.2384                 1.4341                 1.8107
 Frc consts  --     1.7357                 1.1308                 1.4494
 IR Inten    --    31.2481                 9.5568                 1.8687
 Raman Activ --     8.4100                 2.1932                 1.2421

                    76                     77                     78
                     A                      A                      A
 Frequencies --  1177.1166              1196.6871              1207.3636
 Red. masses --     2.0297                 1.4481                 1.4316
 Frc consts  --     1.6570                 1.2218                 1.2295
 IR Inten    --     2.8300                 3.3143                 2.6813
 Raman Activ --     1.9856                 2.5872                 1.9281

                    79                     80                     81
                     A                      A                      A
 Frequencies --  1214.7438              1235.4140              1241.3662
 Red. masses --     1.2547                 1.2231                 1.2350
 Frc consts  --     1.0909                 1.0999                 1.1213
 IR Inten    --     8.5164                10.9883                41.2935
 Raman Activ --     2.3467                 0.9892                 2.7232

                    82                     83                     84
                     A                      A                      A
 Frequencies --  1248.3200              1262.5334              1267.2854
 Red. masses --     1.3155                 1.3615                 1.2876
 Frc consts  --     1.2078                 1.2787                 1.2184
 IR Inten    --    20.3126                 4.8699                12.1048
 Raman Activ --     1.5731                 1.7999                 9.3615

                    85                     86                     87
                     A                      A                      A
 Frequencies --  1277.9780              1286.1404              1300.8239
 Red. masses --     1.3503                 1.2439                 1.3458
 Frc consts  --     1.2994                 1.2123                 1.3417
 IR Inten    --    36.1158                 6.7478                39.1361
 Raman Activ --     1.0175                 0.7275                 5.3931

                    88                     89                     90
                     A                      A                      A
 Frequencies --  1303.3176              1313.0301              1318.5009
 Red. masses --     1.3488                 1.3092                 1.2807
 Frc consts  --     1.3499                 1.3298                 1.3118
 IR Inten    --    14.4785                14.4505                 0.6855
 Raman Activ --     3.7430                 4.2761                 3.8439

                    91                     92                     93
                     A                      A                      A
 Frequencies --  1329.9880              1335.0379              1339.9945
 Red. masses --     1.2883                 1.3631                 1.2857
 Frc consts  --     1.3426                 1.4314                 1.3602
 IR Inten    --     4.9875                68.6470                21.8200
 Raman Activ --     2.5241                 6.9738                 2.3174

                    94                     95                     96
                     A                      A                      A
 Frequencies --  1350.9864              1353.2201              1365.8443
 Red. masses --     1.1646                 1.1773                 1.4983
 Frc consts  --     1.2524                 1.2702                 1.6469
 IR Inten    --    14.9564                16.4822                 3.6795
 Raman Activ --     2.7855                 3.3170                13.8405

                    97                     98                     99
                     A                      A                      A
 Frequencies --  1386.6979              1390.5925              1397.6534
 Red. masses --     1.3261                 1.5095                 1.2414
 Frc consts  --     1.5024                 1.7199                 1.4288
 IR Inten    --     8.3279                 3.4234                 6.5441
 Raman Activ --     3.6518                 3.6927                 6.8129

                   100                    101                    102
                     A                      A                      A
 Frequencies --  1419.7720              1435.4469              1442.8670
 Red. masses --     1.1379                 1.3915                 1.3849
 Frc consts  --     1.3514                 1.6892                 1.6987
 IR Inten    --    45.0336                44.0059                37.5360
 Raman Activ --     8.1979                 0.9776                 1.8194

                   103                    104                    105
                     A                      A                      A
 Frequencies --  1465.4315              1477.3679              1493.5494
 Red. masses --     1.4144                 1.0844                 1.2886
 Frc consts  --     1.7895                 1.3945                 1.6936
 IR Inten    --    27.0832                 2.0745                61.0403
 Raman Activ --     1.2654                 5.0558                 2.8957

                   106                    107                    108
                     A                      A                      A
 Frequencies --  1501.3299              1949.5826              3208.4098
 Red. masses --     1.2719                 1.1530                 1.0501
 Frc consts  --     1.6892                 2.5820                 6.3686
 IR Inten    --    45.4958                71.3720                80.9808
 Raman Activ --     0.6952                 6.5761               168.4660

                   109                    110                    111
                     A                      A                      A
 Frequencies --  3230.8176              3252.3026              3265.5116
 Red. masses --     1.0684                 1.0798                 1.0578
 Frc consts  --     6.5704                 6.7293                 6.6459
 IR Inten    --   781.3970               234.4148                 9.4766
 Raman Activ --   180.4678                37.9703               182.6140

                   112                    113                    114
                     A                      A                      A
 Frequencies --  3271.1059              3274.1053              3275.4966
 Red. masses --     1.0821                 1.0823                 1.0831
 Frc consts  --     6.8217                 6.8360                 6.8467
 IR Inten    --    99.5538                34.2838                42.2445
 Raman Activ --    92.0795                86.6913                 9.6229

                   115                    116                    117
                     A                      A                      A
 Frequencies --  3278.5754              3283.5311              3287.0211
 Red. masses --     1.0847                 1.0789                 1.0812
 Frc consts  --     6.8699                 6.8532                 6.8830
 IR Inten    --    59.3081               313.9248               322.4267
 Raman Activ --   117.0579                98.4482                67.3508

                   118                    119                    120
                     A                      A                      A
 Frequencies --  3291.2506              3294.6317              3303.2278
 Red. masses --     1.0854                 1.0827                 1.0866
 Frc consts  --     6.9274                 6.9244                 6.9854
 IR Inten    --    21.3556               210.8080                48.6349
 Raman Activ --    17.7189                80.0866                46.0446

                   121                    122                    123
                     A                      A                      A
 Frequencies --  3307.5866              3308.3376              3318.4520
 Red. masses --     1.0860                 1.0699                 1.0926
 Frc consts  --     7.0003                 6.8993                 7.0890
 IR Inten    --    63.3029                28.9248                20.3835
 Raman Activ --    10.9228               304.3688                60.3621

                   124                    125                    126
                     A                      A                      A
 Frequencies --  3326.1501              3363.4964              3370.3413
 Red. masses --     1.1084                 1.0657                 1.0660
 Frc consts  --     7.2251                 7.1033                 7.1341
 IR Inten    --    34.9272                24.3643                34.2465
 Raman Activ --    50.9954               134.8552               116.4278

                   127                    128                    129
                     A                      A                      A
 Frequencies --  3375.8112              3888.1633              3891.6657
 Red. masses --     1.0671                 1.0675                 1.0676
 Frc consts  --     7.1650                 9.5084                 9.5262
 IR Inten    --    62.1780                97.0046                83.1606
 Raman Activ --   150.1287                67.0535               106.8699

 - Thermochemistry -
 -------------------
 Temperature   298.150 Kelvin.  Pressure   1.00000 Atm.
 Atom     1 has atomic number  8 and mass  15.99491

 Molecular mass:   342.11621 amu.
 Principal axes and moments of inertia in atomic units:
                           1         2         3
     Eigenvalues --  4406.05023********************
           X            0.99998   0.00692  -0.00074
           Y           -0.00692   0.99997   0.00152
           Z            0.00075  -0.00152   1.00000
 This molecule is an asymmetric top.
 Rotational symmetry number  1.
 Warning -- assumption of classical behavior for rotation
           may cause significant error
 Rotational temperatures (Kelvin)      0.01966     0.00697     0.00527
 Rotational constants (GHZ):           0.40961     0.14516     0.10990
    8 imaginary frequencies ignored.
 Zero-point vibrational energy     968791.5 (Joules/Mol)
                                  231.54674 (Kcal/Mol)
 Warning -- explicit consideration of  32 degrees of freedom as
           vibrations may cause significant error
 Vibrational temperatures:     41.74    90.62   121.56   178.19   197.94
          (Kelvin)            250.14   274.66   301.59   309.16   326.99
                              342.13   398.08   418.14   445.32   455.96
                              471.25   486.16   515.12   531.66   566.72
                              588.02   596.73   626.76   642.34   668.10
                              709.46   741.30   807.22   826.12   851.70
                              867.37   871.22   907.67   970.28  1060.70
                             1063.31  1067.37  1071.38  1084.63  1243.94
                             1307.23  1319.50  1325.36  1363.07  1398.76
                             1409.83  1413.62  1433.82  1452.73  1469.47
                             1487.81  1501.97  1514.27  1525.93  1527.51
                             1537.03  1551.64  1568.45  1579.89  1597.65
                             1610.33  1612.78  1635.87  1644.47  1650.57
                             1664.47  1677.04  1693.61  1721.76  1737.12
                             1747.74  1777.48  1786.05  1796.05  1816.50
                             1823.34  1838.72  1850.47  1871.59  1875.18
                             1889.16  1897.03  1913.55  1920.82  1927.95
                             1943.77  1946.98  1965.14  1995.15  2000.75
                             2010.91  2042.73  2065.29  2075.96  2108.43
                             2125.60  2148.88  2160.08  2805.01  4616.18
                             4648.42  4679.33  4698.34  4706.39  4710.70
                             4712.70  4717.13  4724.26  4729.28  4735.37
                             4740.23  4752.60  4758.87  4759.95  4774.51
                             4785.58  4839.32  4849.16  4857.03  5594.19
                             5599.23

 Zero-point correction=                           0.368993 (Hartree/Particle)
 Thermal correction to Energy=                    0.387038
 Thermal correction to Enthalpy=                  0.387982
 Thermal correction to Gibbs Free Energy=         0.323700
 Sum of electronic and zero-point Energies=          -1297.448707
 Sum of electronic and thermal Energies=             -1297.430662
 Sum of electronic and thermal Enthalpies=           -1297.429718
 Sum of electronic and thermal Free Energies=        -1297.494000

                     E (Thermal)             CV                S
                      KCal/Mol        Cal/Mol-Kelvin    Cal/Mol-Kelvin
 Total                  242.870             75.349            135.293
 Electronic               0.000              0.000              0.000
 Translational            0.889              2.981             43.384
 Rotational               0.889              2.981             35.152
 Vibrational            241.092             69.387             56.756
 Vibration     1          0.593              1.984              5.896
 Vibration     2          0.597              1.972              4.361
 Vibration     3          0.601              1.960              3.784
 Vibration     4          0.610              1.929              3.039
 Vibration     5          0.614              1.916              2.837
 Vibration     6          0.627              1.875              2.393
 Vibration     7          0.634              1.852              2.219
 Vibration     8          0.642              1.826              2.047
 Vibration     9          0.645              1.818              2.002
 Vibration    10          0.651              1.799              1.900
 Vibration    11          0.656              1.783              1.819
 Vibration    12          0.678              1.717              1.554
 Vibration    13          0.687              1.691              1.470
 Vibration    14          0.699              1.656              1.365
 Vibration    15          0.704              1.641              1.326
 Vibration    16          0.711              1.620              1.272
 Vibration    17          0.718              1.600              1.222
 Vibration    18          0.733              1.559              1.131
 Vibration    19          0.742              1.535              1.082
 Vibration    20          0.761              1.483              0.985
 Vibration    21          0.773              1.451              0.931
 Vibration    22          0.778              1.438              0.910
 Vibration    23          0.796              1.393              0.840
 Vibration    24          0.806              1.369              0.807
 Vibration    25          0.822              1.329              0.754
 Vibration    26          0.849              1.265              0.676
 Vibration    27          0.870              1.216              0.621
 Vibration    28          0.917              1.116              0.522
 Vibration    29          0.930              1.087              0.496
 Vibration    30          0.949              1.049              0.464
 Vibration    31          0.961              1.026              0.445
 Vibration    32          0.964              1.020              0.440

 Normal termination of Gaussian 09 at Wed Mar 23 05:45:47 2016.
