 Gaussian 09, Revision B.01,
 Gaussian 09:  EM64L-G09RevB.01 12-Aug-2010

 ------------------------------------------------
 # freq=raman b3lyp/6-31+g(d,p) geom=connectivity
 ------------------------------------------------

 ------------
 310 7000.com
 ------------
 Symbolic Z-matrix:
 Charge =  0 Multiplicity = 1

                         Standard orientation:
 ---------------------------------------------------------------------
 Center     Atomic      Atomic             Coordinates (Angstroms)
 Number     Number       Type             X           Y           Z
 ---------------------------------------------------------------------
      1          8           0        4.967831   -0.163896   -0.422083
      2          6           0        3.765510   -0.075371    0.355979
      3          6           0        3.159731    1.221093   -0.153861
      4          8           0        4.088769    2.312765   -0.088114
      5          1           0        5.018590    1.954769   -0.003849
      6          6           0        1.734506    1.499174    0.296843
      7          8           0        1.330355    2.733080   -0.314523
      8          1           0        0.359179    2.862946   -0.114205
      9          6           0        3.180210   -2.578962    0.182540
     10          8           0        4.337714   -3.093815   -0.490430
     11          1           0        4.317646   -4.087561   -0.385052
     12          6           0        2.823540   -1.144295   -0.173244
     13          8           0        1.566484   -0.909930    0.477583
     14          6           0        0.896968    0.265685    0.000484
     15          8           0       -0.318443    0.481000    0.732526
     16          6           0       -1.576238    0.204883    0.100181
     17          6           0       -2.095534   -1.180330    0.450056
     18          8           0       -1.172548   -2.187130    0.009481
     19          1           0       -0.380193   -2.155409    0.618743
     20          6           0       -3.370968   -1.485045   -0.318880
     21          8           0       -3.762921   -2.820668    0.029659
     22          1           0       -4.677661   -2.986913   -0.338218
     23          6           0       -2.310713    2.601232   -0.270390
     24          8           0       -1.155185    3.397553    0.031591
     25          1           0       -1.314985    4.381762   -0.048856
     26          6           0       -2.648516    1.253716    0.346184
     27          8           0       -3.938217    0.849478   -0.137419
     28          6           0       -4.359688   -0.471223    0.234423
     29          8           0       -5.455746   -0.543772   -0.689329
     30          1           0        5.715822   -0.313799    0.160703
     31          1           0       -6.272184   -0.690903   -0.206234
     32          1           0       -3.155290    3.229278   -0.077652
     33          1           0       -2.283924    2.438881   -1.327662
     34          1           0       -2.727655    1.392027    1.404251
     35          1           0       -1.390479    0.203166   -0.953570
     36          1           0       -2.264759   -1.263031    1.503347
     37          1           0       -3.233415   -1.371478   -1.373907
     38          1           0       -4.630353   -0.594509    1.262256
     39          1           0        2.345074   -3.203522   -0.056988
     40          1           0        3.351693   -2.632282    1.237363
     41          1           0        2.711867   -1.044758   -1.232735
     42          1           0        0.697208    0.188512   -1.047867
     43          1           0        1.743264    1.644167    1.356937
     44          1           0        3.053400    1.050006   -1.204729
     45          1           0        3.919553   -0.102009    1.414498
 ---------------------------------------------------------------------

 SCF Done:  E(RB3LYP) =  -1297.92420863     A.U. after   14 cycles

 The electronic state is 1-A.
 Alpha  occ. eigenvalues --  -19.19897 -19.19206 -19.18788 -19.18660 -19.18380
 Alpha  occ. eigenvalues --  -19.17266 -19.17076 -19.16816 -19.15721 -19.14037
 Alpha  occ. eigenvalues --  -19.12671 -10.31556 -10.30444 -10.26783 -10.25885
 Alpha  occ. eigenvalues --  -10.25767 -10.25356 -10.25237 -10.24865 -10.24822
 Alpha  occ. eigenvalues --  -10.24160 -10.22976 -10.22634  -1.10085  -1.08902
 Alpha  occ. eigenvalues --   -1.05649  -1.05171  -1.04028  -1.03703  -1.02744
 Alpha  occ. eigenvalues --   -1.02442  -1.01043  -1.00159  -0.98386  -0.82289
 Alpha  occ. eigenvalues --   -0.80106  -0.79589  -0.77844  -0.72057  -0.69783
 Alpha  occ. eigenvalues --   -0.67090  -0.64405  -0.63439  -0.62006  -0.61667
 Alpha  occ. eigenvalues --   -0.60179  -0.56620  -0.56057  -0.55170  -0.54400
 Alpha  occ. eigenvalues --   -0.53797  -0.53159  -0.52867  -0.51889  -0.51053
 Alpha  occ. eigenvalues --   -0.50254  -0.49308  -0.48737  -0.48146  -0.46539
 Alpha  occ. eigenvalues --   -0.46130  -0.44954  -0.44075  -0.43342  -0.42905
 Alpha  occ. eigenvalues --   -0.41967  -0.41171  -0.40198  -0.39853  -0.39406
 Alpha  occ. eigenvalues --   -0.38489  -0.37564  -0.37028  -0.36645  -0.35911
 Alpha  occ. eigenvalues --   -0.35315  -0.34832  -0.33986  -0.33243  -0.32566
 Alpha  occ. eigenvalues --   -0.32427  -0.31410  -0.31212  -0.30261  -0.29741
 Alpha  occ. eigenvalues --   -0.28790  -0.28470  -0.28074  -0.27060  -0.25614
 Alpha  occ. eigenvalues --   -0.25315
 Alpha virt. eigenvalues --   -0.02172  -0.02121  -0.01615  -0.00223   0.00038
 Alpha virt. eigenvalues --    0.00739   0.01837   0.02212   0.03001   0.03568
 Alpha virt. eigenvalues --    0.03925   0.04111   0.05042   0.05559   0.05652

 Mulliken atomic charges:
              1
     1  O   -0.544436
     2  C   -0.093235
     3  C   -0.037976
     4  O   -0.511232
     5  H    0.351907
     6  C    0.152151
     7  O   -0.577169
     8  H    0.476088
     9  C    0.042934
    10  O   -0.529566
    11  H    0.354823
    12  C    0.103945
    13  O   -0.405632
    14  C    0.138304
    15  O   -0.355820
    16  C    0.085963
    17  C   -0.095462
    18  O   -0.467109
    19  H    0.371700
    20  C   -0.029837
    21  O   -0.494122
    22  H    0.346519
    23  C   -0.116997
    24  O   -0.642998
    25  H    0.404189
    26  C    0.022513
    27  O   -0.298879
    28  C    0.291938
    29  O   -0.558098
    30  H    0.359952
    31  H    0.354012
    32  H    0.135159
    33  H    0.149743
    34  H    0.134719
    35  H    0.113466
    36  H    0.141057
    37  H    0.160496
    38  H    0.145889
    39  H    0.136533
    40  H    0.129845
    41  H    0.140550
    42  H    0.121470
    43  H    0.133278
    44  H    0.118475
    45  H    0.140950
 Sum of Mulliken atomic charges =   0.00000

 Dipole moment (field-independent basis, Debye):
    X=             -3.9041    Y=             -1.4219    Z=              3.3149  Tot=              5.3153
 Quadrupole moment (field-independent basis, Debye-Ang):
   XX=           -113.5645   YY=           -135.4128   ZZ=           -139.1013
   XY=            -18.6566   XZ=              4.4148   YZ=             -0.9103

  Exact polarizability: 227.762   1.226 193.667   1.144  -0.704 141.875
 Approx polarizability: 264.972   0.999 249.933   1.452  -1.386 232.523

 ******    7 imaginary frequencies (negative Signs) ******

                     1                      2                      3
                     A                      A                      A
 Frequencies --  -316.3994              -305.2817              -284.3156
 Red. masses --     1.6908                 1.1471                 1.2350
 Frc consts  --     0.0997                 0.0630                 0.0588
 IR Inten    --     2.0595               106.1381               110.0729
 Raman Activ --     0.0131                 1.2207                 0.8483

                     4                      5                      6
                     A                      A                      A
 Frequencies --  -237.5004               -75.8234               -69.3921
 Red. masses --     1.7037                 6.3264                 6.1501
 Frc consts  --     0.0566                 0.0214                 0.0174
 IR Inten    --    15.0364                 1.2451                 0.1713
 Raman Activ --     0.3375                 0.0389                 0.0519

                     7                      8                      9
                     A                      A                      A
 Frequencies --   -48.9673                34.8890                55.1749
 Red. masses --     6.1902                 6.4864                 6.9758
 Frc consts  --     0.0087                 0.0047                 0.0125
 IR Inten    --     0.7386                 1.1300                 0.2250
 Raman Activ --     0.0704                 0.0506                 0.1663

                    10                     11                     12
                     A                      A                      A
 Frequencies --    68.0264                88.7704               103.6421
 Red. masses --     6.7819                 6.2255                 6.4019
 Frc consts  --     0.0185                 0.0289                 0.0405
 IR Inten    --     0.3547                 1.7041                 0.1964
 Raman Activ --     0.0307                 0.0565                 0.0302

                    13                     14                     15
                     A                      A                      A
 Frequencies --   146.7914               172.5051               181.9399
 Red. masses --     6.2545                 7.9647                 5.5092
 Frc consts  --     0.0794                 0.1396                 0.1074
 IR Inten    --     0.9189                 1.4040                 5.3773
 Raman Activ --     0.3717                 0.4360                 0.2996

                    16                     17                     18
                     A                      A                      A
 Frequencies --   208.0546               231.0112               270.7824
 Red. masses --     7.2439                 6.0509                 4.2525
 Frc consts  --     0.1847                 0.1903                 0.1837
 IR Inten    --     0.6169                 0.9987                13.8334
 Raman Activ --     3.3853                 0.2707                 0.5610

                    19                     20                     21
                     A                      A                      A
 Frequencies --   281.3030               292.1349               308.7012
 Red. masses --     5.0710                 5.1761                 5.6743
 Frc consts  --     0.2364                 0.2603                 0.3186
 IR Inten    --     3.4195                 5.0991                 4.5503
 Raman Activ --     0.1461                 1.4604                 2.7717

                    22                     23                     24
                     A                      A                      A
 Frequencies --   316.5490               324.1174               348.8302
 Red. masses --     5.8211                 6.4576                 5.8196
 Frc consts  --     0.3437                 0.3997                 0.4172
 IR Inten    --     3.0966                 2.1366                 8.0781
 Raman Activ --     0.2743                 2.0304                 3.8350

                    25                     26                     27
                     A                      A                      A
 Frequencies --   350.9724               358.3884               377.9647
 Red. masses --     4.9503                 5.2489                 5.6172
 Frc consts  --     0.3593                 0.3972                 0.4728
 IR Inten    --     6.7310                 3.5616                10.7424
 Raman Activ --     1.2826                 0.4075                 0.2487

                    28                     29                     30
                     A                      A                      A
 Frequencies --   405.0003               429.8349               438.6662
 Red. masses --     3.7481                 5.6498                 5.5100
 Frc consts  --     0.3622                 0.6150                 0.6247
 IR Inten    --    15.4483                 1.5391                 2.0277
 Raman Activ --     2.4741                 3.5300                 0.7309

                    31                     32                     33
                     A                      A                      A
 Frequencies --   444.8218               487.3984               493.5960
 Red. masses --     5.1169                 4.1534                 3.9301
 Frc consts  --     0.5965                 0.5813                 0.5642
 IR Inten    --     2.2590                 5.0228                15.0521
 Raman Activ --     2.3665                 5.4854                 0.6416

                    34                     35                     36
                     A                      A                      A
 Frequencies --   512.5742               529.4805               575.4961
 Red. masses --     4.7620                 3.1395                 4.2360
 Frc consts  --     0.7371                 0.5186                 0.8266
 IR Inten    --     9.5196                 9.0239                 8.1616
 Raman Activ --     1.2358                 4.7547                 0.9406

                    37                     38                     39
                     A                      A                      A
 Frequencies --   587.3660               605.5979               616.6463
 Red. masses --     4.4927                 2.5702                 1.3276
 Frc consts  --     0.9132                 0.5554                 0.2974
 IR Inten    --    14.7284                40.7324                92.3928
 Raman Activ --     0.4413                 0.6123                 1.8058

                    40                     41                     42
                     A                      A                      A
 Frequencies --   624.2301               635.5841               647.1350
 Red. masses --     1.9986                 4.4480                 1.3230
 Frc consts  --     0.4589                 1.0587                 0.3264
 IR Inten    --    16.5171                20.7610                92.2544
 Raman Activ --     0.6520                 0.5377                 1.8244

                    43                     44                     45
                     A                      A                      A
 Frequencies --   693.5497               700.4003               737.5098
 Red. masses --     4.5690                 1.1058                 1.0780
 Frc consts  --     1.2949                 0.3196                 0.3455
 IR Inten    --    26.8463               106.6484               121.0142
 Raman Activ --     0.9733                 2.0983                 1.9709

                    46                     47                     48
                     A                      A                      A
 Frequencies --   745.9102               843.2933               856.7534
 Red. masses --     1.0924                 1.5753                 1.7008
 Frc consts  --     0.3581                 0.6600                 0.7356
 IR Inten    --   167.9854                15.8741                 3.1354
 Raman Activ --     6.0220                 0.5951                 1.8343

                    49                     50                     51
                     A                      A                      A
 Frequencies --   886.6460               931.4961               951.3351
 Red. masses --     1.1495                 5.0292                 5.9047
 Frc consts  --     0.5324                 2.5710                 3.1486
 IR Inten    --    54.3021               115.2355                14.8550
 Raman Activ --     0.4896                 4.1622                 0.2516

                    52                     53                     54
                     A                      A                      A
 Frequencies --   990.8021               999.9413              1007.5833
 Red. masses --     5.0180                 4.8494                 6.6129
 Frc consts  --     2.9024                 2.8569                 3.9555
 IR Inten    --   190.7083                10.9741                69.2350
 Raman Activ --     4.1965                 2.8748                 0.5681

                    55                     56                     57
                     A                      A                      A
 Frequencies --  1018.5482              1022.0280              1028.2974
 Red. masses --     5.4252                 4.3160                 4.9566
 Frc consts  --     3.3161                 2.6562                 3.0880
 IR Inten    --   226.9847                 3.2162                82.5100
 Raman Activ --     1.6474                 4.2228                 1.4380

                    58                     59                     60
                     A                      A                      A
 Frequencies --  1046.5412              1054.8284              1065.7075
 Red. masses --     2.9132                 2.2446                 2.0216
 Frc consts  --     1.8799                 1.4715                 1.3528
 IR Inten    --   462.8968                17.3476                94.0706
 Raman Activ --     2.4002                 7.4690                14.1117

                    61                     62                     63
                     A                      A                      A
 Frequencies --  1066.0280              1071.3698              1087.3945
 Red. masses --     3.9719                 3.1441                 4.7417
 Frc consts  --     2.6594                 2.1263                 3.3034
 IR Inten    --    51.1819               100.1262                15.4675
 Raman Activ --     1.4505                 4.0222                 1.2612

                    64                     65                     66
                     A                      A                      A
 Frequencies --  1089.3453              1092.2769              1097.3886
 Red. masses --     3.3350                 2.4336                 3.3813
 Frc consts  --     2.3317                 1.7107                 2.3991
 IR Inten    --   213.4400                10.1645                25.7954
 Raman Activ --     2.7036                 1.6582                14.8771

                    67                     68                     69
                     A                      A                      A
 Frequencies --  1108.5200              1116.6652              1125.0593
 Red. masses --     2.8242                 2.0127                 1.8459
 Frc consts  --     2.0447                 1.4787                 1.3766
 IR Inten    --    41.6374                23.2055                18.0282
 Raman Activ --     9.6846                 2.9246                 6.0475

                    70                     71                     72
                     A                      A                      A
 Frequencies --  1134.6191              1144.4794              1156.4444
 Red. masses --     3.2902                 2.1806                 2.8013
 Frc consts  --     2.4956                 1.6828                 2.2073
 IR Inten    --    38.3896                55.6817                 3.3835
 Raman Activ --     1.4193                 6.6323                 8.0157

                    73                     74                     75
                     A                      A                      A
 Frequencies --  1161.7619              1171.1394              1178.5318
 Red. masses --     2.1606                 2.0954                 1.5534
 Frc consts  --     1.7182                 1.6933                 1.2712
 IR Inten    --     0.5645                38.7481                11.4825
 Raman Activ --     1.5051                 5.9049                 2.5257

                    76                     77                     78
                     A                      A                      A
 Frequencies --  1183.3916              1192.5010              1203.5821
 Red. masses --     1.7003                 1.6343                 1.2796
 Frc consts  --     1.4029                 1.3693                 1.0922
 IR Inten    --    35.7005                25.5481                14.5618
 Raman Activ --     2.7631                 3.7956                 0.6618

                    79                     80                     81
                     A                      A                      A
 Frequencies --  1225.7056              1232.1984              1252.6647
 Red. masses --     1.3247                 1.5063                 1.2005
 Frc consts  --     1.1725                 1.3475                 1.1099
 IR Inten    --     4.1405                 9.1919                29.0610
 Raman Activ --     0.5551                 1.1196                 0.7633

                    82                     83                     84
                     A                      A                      A
 Frequencies --  1261.8912              1265.4244              1271.2359
 Red. masses --     1.2423                 1.2664                 1.4198
 Frc consts  --     1.1655                 1.1948                 1.3519
 IR Inten    --     1.1576                19.5073                27.5814
 Raman Activ --     8.9894                 3.3253                 2.0633

                    85                     86                     87
                     A                      A                      A
 Frequencies --  1291.7435              1300.8264              1302.5201
 Red. masses --     1.2394                 1.3091                 1.1814
 Frc consts  --     1.2185                 1.3051                 1.1809
 IR Inten    --    23.0206                29.8090                12.8693
 Raman Activ --     1.0196                 8.5903                 3.4939

                    88                     89                     90
                     A                      A                      A
 Frequencies --  1307.2363              1317.5969              1320.5310
 Red. masses --     1.3072                 1.2521                 1.2241
 Frc consts  --     1.3161                 1.2808                 1.2576
 IR Inten    --     4.4081                16.9348                47.0327
 Raman Activ --     4.0255                 9.0551                 7.0251

                    91                     92                     93
                     A                      A                      A
 Frequencies --  1330.8183              1336.3988              1349.5814
 Red. masses --     1.3205                 1.4717                 1.4626
 Frc consts  --     1.3779                 1.5486                 1.5696
 IR Inten    --    31.2225                43.3106                 6.2678
 Raman Activ --     3.3292                 1.2192                 7.3208

                    94                     95                     96
                     A                      A                      A
 Frequencies --  1352.1639              1360.4641              1376.0501
 Red. masses --     1.6220                 1.1699                 1.4746
 Frc consts  --     1.7473                 1.2757                 1.6451
 IR Inten    --    10.4229                37.8387                 2.5731
 Raman Activ --     4.9808                 2.5650                12.0489

                    97                     98                     99
                     A                      A                      A
 Frequencies --  1382.8793              1403.9518              1404.6775
 Red. masses --     1.7641                 1.4432                 1.1231
 Frc consts  --     1.9876                 1.6760                 1.3056
 IR Inten    --    11.0965                 4.9062                21.9907
 Raman Activ --     5.4850                 8.0217                 2.2973

                   100                    101                    102
                     A                      A                      A
 Frequencies --  1410.6688              1430.7896              1446.2454
 Red. masses --     1.4334                 1.5305                 1.3627
 Frc consts  --     1.6807                 1.8460                 1.6793
 IR Inten    --    29.0420                27.1463                10.0941
 Raman Activ --     1.1188                 1.2266                 0.7772

                   103                    104                    105
                     A                      A                      A
 Frequencies --  1459.4305              1463.4096              1477.2797
 Red. masses --     1.4348                 1.4138                 1.0920
 Frc consts  --     1.8005                 1.7839                 1.4041
 IR Inten    --    34.5593                 4.3076                 2.5921
 Raman Activ --     2.2676                 1.1347                 4.7137

                   106                    107                    108
                     A                      A                      A
 Frequencies --  1480.8464              1496.2404              3259.7161
 Red. masses --     1.0915                 1.2690                 1.0700
 Frc consts  --     1.4102                 1.6738                 6.6985
 IR Inten    --     2.9166                72.5689               623.0413
 Raman Activ --     4.5841                 1.1685                85.1895

                   109                    110                    111
                     A                      A                      A
 Frequencies --  3264.3178              3266.9759              3275.8664
 Red. masses --     1.0764                 1.0578                 1.0720
 Frc consts  --     6.7578                 6.6522                 6.7782
 IR Inten    --   187.1005                62.8085               150.9275
 Raman Activ --    31.1603               124.0119               272.3497

                   112                    113                    114
                     A                      A                      A
 Frequencies --  3276.7428              3287.7635              3293.9450
 Red. masses --     1.0739                 1.0841                 1.0828
 Frc consts  --     6.7938                 6.9040                 6.9223
 IR Inten    --    69.3322                16.3877                90.7829
 Raman Activ --    54.6481                20.5353                53.9045

                   115                    116                    117
                     A                      A                      A
 Frequencies --  3301.8996              3303.9920              3307.7995
 Red. masses --     1.0863                 1.0868                 1.0864
 Frc consts  --     6.9778                 6.9897                 7.0036
 IR Inten    --    10.1857                 9.0812                41.6914
 Raman Activ --    31.9086                58.8262                66.7598

                   118                    119                    120
                     A                      A                      A
 Frequencies --  3321.2140              3321.9893              3323.6706
 Red. masses --     1.0885                 1.0957                 1.1038
 Frc consts  --     7.0743                 7.1241                 7.1839
 IR Inten    --     4.3948                 8.6794                39.1650
 Raman Activ --   112.7020                31.5855                47.9063

                   121                    122                    123
                     A                      A                      A
 Frequencies --  3328.1219              3330.3012              3386.3660
 Red. masses --     1.0989                 1.0876                 1.0652
 Frc consts  --     7.1713                 7.1073                 7.1967
 IR Inten    --    64.3851                57.1092                36.4658
 Raman Activ --    32.0740                15.0987               105.3047

                   124                    125                    126
                     A                      A                      A
 Frequencies --  3386.8126              3391.4077              3394.5173
 Red. masses --     1.0664                 1.0658                 1.0672
 Frc consts  --     7.2068                 7.2228                 7.2450
 IR Inten    --   102.5010                26.8763                32.2793
 Raman Activ --   129.1724               154.7192               165.0833

                   127                    128                    129
                     A                      A                      A
 Frequencies --  3395.4482              3917.8710              3919.2429
 Red. masses --     1.0687                 1.0676                 1.0674
 Frc consts  --     7.2593                 9.6552                 9.6604
 IR Inten    --    91.3777                56.1629                46.0195
 Raman Activ --   171.3506               108.9158               156.5663

 - Thermochemistry -
 -------------------
 Temperature   298.150 Kelvin.  Pressure   1.00000 Atm.
 Atom     1 has atomic number  8 and mass  15.99491

 Molecular mass:   342.11621 amu.
 Principal axes and moments of inertia in atomic units:
                           1         2         3
     Eigenvalues --  4408.92929********************
           X            0.99997  -0.00808   0.00061
           Y            0.00808   0.99996  -0.00255
           Z           -0.00059   0.00256   1.00000
 This molecule is an asymmetric top.
 Rotational symmetry number  1.
 Warning -- assumption of classical behavior for rotation
           may cause significant error
 Rotational temperatures (Kelvin)      0.01965     0.00695     0.00527
 Rotational constants (GHZ):           0.40934     0.14482     0.10975
    7 imaginary frequencies ignored.
 Zero-point vibrational energy     975453.5 (Joules/Mol)
                                  233.13899 (Kcal/Mol)
 Warning -- explicit consideration of  32 degrees of freedom as
           vibrations may cause significant error
 Vibrational temperatures:     50.20    79.38    97.87   127.72   149.12
          (Kelvin)            211.20   248.20   261.77   299.34   332.37
                              389.60   404.73   420.32   444.15   455.44
                              466.33   501.89   504.97   515.64   543.81
                              582.70   618.44   631.14   640.00   701.26
                              710.17   737.48   761.80   828.01   845.09
                              871.32   887.22   898.13   914.46   931.08
                              997.86  1007.72  1061.11  1073.20  1213.31
                             1232.68  1275.68  1340.21  1368.76  1425.54
                             1438.69  1449.69  1465.46  1470.47  1479.49
                             1505.74  1517.66  1533.31  1533.77  1541.46
                             1564.52  1567.32  1571.54  1578.90  1594.91
                             1606.63  1618.71  1632.46  1646.65  1663.86
                             1671.51  1685.01  1695.64  1702.63  1715.74
                             1731.68  1763.51  1772.86  1802.30  1815.58
                             1820.66  1829.02  1858.53  1871.60  1874.03
                             1880.82  1895.73  1899.95  1914.75  1922.78
                             1941.74  1945.46  1957.40  1979.83  1989.65
                             2019.97  2021.02  2029.64  2058.58  2080.82
                             2099.79  2105.52  2125.47  2130.61  2152.75
                             4690.00  4696.62  4700.44  4713.24  4714.50
                             4730.35  4739.25  4750.69  4753.70  4759.18
                             4778.48  4779.60  4782.01  4788.42  4791.55
                             4872.22  4872.86  4879.47  4883.95  4885.29
                             5636.94  5638.91

 Zero-point correction=                           0.371531 (Hartree/Particle)
 Thermal correction to Energy=                    0.389936
 Thermal correction to Enthalpy=                  0.390880
 Thermal correction to Gibbs Free Energy=         0.325441
 Sum of electronic and zero-point Energies=          -1297.552678
 Sum of electronic and thermal Energies=             -1297.534273
 Sum of electronic and thermal Enthalpies=           -1297.533329
 Sum of electronic and thermal Free Energies=        -1297.598767

                     E (Thermal)             CV                S
                      KCal/Mol        Cal/Mol-Kelvin    Cal/Mol-Kelvin
 Total                  244.688             76.098            137.728
 Electronic               0.000              0.000              0.000
 Translational            0.889              2.981             43.384
 Rotational               0.889              2.981             35.156
 Vibrational            242.911             70.136             59.187
 Vibration     1          0.594              1.983              5.530
 Vibration     2          0.596              1.976              4.623
 Vibration     3          0.598              1.969              4.210
 Vibration     4          0.602              1.957              3.687
 Vibration     5          0.605              1.946              3.385
 Vibration     6          0.617              1.906              2.713
 Vibration     7          0.626              1.876              2.408
 Vibration     8          0.630              1.864              2.308
 Vibration     9          0.641              1.828              2.061
 Vibration    10          0.653              1.794              1.871
 Vibration    11          0.674              1.727              1.591
 Vibration    12          0.681              1.708              1.526
 Vibration    13          0.688              1.688              1.462
 Vibration    14          0.698              1.657              1.369
 Vibration    15          0.703              1.642              1.328
 Vibration    16          0.709              1.627              1.289
 Vibration    17          0.726              1.578              1.171
 Vibration    18          0.728              1.573              1.162
 Vibration    19          0.733              1.558              1.129
 Vibration    20          0.748              1.517              1.047
 Vibration    21          0.770              1.459              0.944
 Vibration    22          0.791              1.405              0.859
 Vibration    23          0.799              1.386              0.831
 Vibration    24          0.804              1.372              0.812
 Vibration    25          0.843              1.278              0.690
 Vibration    26          0.849              1.264              0.674
 Vibration    27          0.868              1.222              0.627
 Vibration    28          0.884              1.185              0.588
 Vibration    29          0.932              1.084              0.494
 Vibration    30          0.945              1.059              0.472
 Vibration    31          0.964              1.020              0.440
 Vibration    32          0.976              0.997              0.422

 Normal termination of Gaussian 09 at Tue Mar  1 03:21:06 2016.
