 Gaussian 09, Revision B.01,
 Gaussian 09:  EM64L-G09RevB.01 12-Aug-2010

 --------------------------------------------------
 # freq=raman b3lyp/6-31+g(2df,p) geom=connectivity
 --------------------------------------------------

 -------------
 300 10000.com
 -------------
 Symbolic Z-matrix:
 Charge =  0 Multiplicity = 1

                         Standard orientation:
 ---------------------------------------------------------------------
 Center     Atomic      Atomic             Coordinates (Angstroms)
 Number     Number       Type             X           Y           Z
 ---------------------------------------------------------------------
      1          8           0       -4.994999   -0.365233    0.446584
      2          6           0       -3.691352   -0.164280   -0.119167
      3          6           0       -3.318683    1.252610    0.287297
      4          8           0       -4.177436    2.256342   -0.272787
      5          1           0       -5.113157    1.915851   -0.361412
      6          6           0       -1.898291    1.570743   -0.152211
      7          8           0       -1.392634    2.775474    0.440404
      8          1           0       -0.523563    2.977965   -0.011793
      9          6           0       -2.993935   -2.557930   -0.168853
     10          8           0       -4.063267   -3.373060    0.332706
     11          1           0       -3.888933   -4.261961   -0.089093
     12          6           0       -2.679353   -1.178945    0.387539
     13          8           0       -1.348116   -0.919987   -0.079221
     14          6           0       -0.949049    0.432848    0.184575
     15          8           0        0.200463    0.505695   -0.672026
     16          6           0        1.454809    0.189588   -0.052140
     17          6           0        2.034905   -1.142657   -0.501304
     18          8           0        1.107079   -2.237266   -0.514925
     19          1           0        0.245987   -1.813710   -0.796118
     20          6           0        3.371882   -1.533812    0.106544
     21          8           0        4.111306   -2.723284   -0.202178
     22          1           0        4.948394   -2.635216    0.337883
     23          6           0        2.261973    2.597953    0.123007
     24          8           0        1.186492    3.412809   -0.365299
     25          1           0        1.554031    4.327714   -0.536825
     26          6           0        2.551412    1.191076   -0.375370
     27          8           0        3.670803    0.884946    0.469432
     28          6           0        4.283865   -0.322834   -0.004624
     29          8           0        5.427432   -0.485591    0.847569
     30          1           0        6.210118   -0.625450    0.309571
     31          1           0       -5.633232   -0.495609   -0.258584
     32          1           0       -3.752713   -0.224467   -1.185710
     33          1           0       -3.367450    1.322121    1.353923
     34          1           0       -1.900766    1.698621   -1.214539
     35          1           0       -0.638400    0.519342    1.204828
     36          1           0       -2.692406   -1.205564    1.457128
     37          1           0       -2.099083   -3.136531   -0.072104
     38          1           0       -3.174200   -2.429832   -1.215751
     39          1           0        3.158666    3.161059   -0.031116
     40          1           0        2.121497    2.518382    1.180757
     41          1           0        2.820172    1.178874   -1.410995
     42          1           0        1.315223    0.163365    1.008392
     43          1           0        2.260609   -0.984026   -1.535129
     44          1           0        3.162369   -1.627173    1.151670
     45          1           0        4.600761   -0.196691   -1.018806
 ---------------------------------------------------------------------

 SCF Done:  E(RB3LYP) =  -1298.00340570     A.U. after   13 cycles

 The electronic state is 1-A.
 Alpha  occ. eigenvalues --  -19.18675 -19.18619 -19.18583 -19.18470 -19.18295
 Alpha  occ. eigenvalues --  -19.17186 -19.16588 -19.16166 -19.15385 -19.14201
 Alpha  occ. eigenvalues --  -19.14009 -10.30704 -10.30215 -10.26290 -10.25947
 Alpha  occ. eigenvalues --  -10.25667 -10.25449 -10.25017 -10.24911 -10.24597
 Alpha  occ. eigenvalues --  -10.24234 -10.24133 -10.23776  -1.10347  -1.09710
 Alpha  occ. eigenvalues --   -1.05551  -1.05224  -1.04225  -1.03846  -1.02844
 Alpha  occ. eigenvalues --   -1.02559  -1.02087  -1.00961  -1.00334  -0.82340
 Alpha  occ. eigenvalues --   -0.80596  -0.79816  -0.78308  -0.71796  -0.69710
 Alpha  occ. eigenvalues --   -0.67278  -0.65092  -0.63366  -0.62740  -0.61489
 Alpha  occ. eigenvalues --   -0.60278  -0.56578  -0.55792  -0.55500  -0.54556
 Alpha  occ. eigenvalues --   -0.54270  -0.53246  -0.52997  -0.51541  -0.50950
 Alpha  occ. eigenvalues --   -0.50825  -0.50106  -0.49471  -0.48679  -0.46377
 Alpha  occ. eigenvalues --   -0.46023  -0.44982  -0.44161  -0.44001  -0.43258
 Alpha  occ. eigenvalues --   -0.42694  -0.41933  -0.41284  -0.40376  -0.39890
 Alpha  occ. eigenvalues --   -0.39471  -0.38248  -0.37677  -0.36331  -0.35992
 Alpha  occ. eigenvalues --   -0.35684  -0.35395  -0.34638  -0.34534  -0.33930
 Alpha  occ. eigenvalues --   -0.33282  -0.31705  -0.31226  -0.30670  -0.30100
 Alpha  occ. eigenvalues --   -0.29765  -0.28858  -0.27978  -0.27887  -0.26974
 Alpha  occ. eigenvalues --   -0.26548
 Alpha virt. eigenvalues --   -0.02304  -0.02148  -0.02026  -0.00440   0.00127
 Alpha virt. eigenvalues --    0.00911   0.01779   0.02182   0.03295   0.03462
 Alpha virt. eigenvalues --    0.03954   0.04182   0.04780   0.05332   0.05522

 Mulliken atomic charges:
              1
     1  O   -0.428036
     2  C   -0.187614
     3  C    0.001696
     4  O   -0.457928
     5  H    0.335521
     6  C   -0.169912
     7  O   -0.465463
     8  H    0.419811
     9  C   -0.283659
    10  O   -0.434247
    11  H    0.333887
    12  C   -0.024678
    13  O   -0.007479
    14  C    0.167909
    15  O   -0.018804
    16  C    0.086707
    17  C    0.031619
    18  O   -0.440148
    19  H    0.373211
    20  C   -0.125172
    21  O   -0.445844
    22  H    0.349312
    23  C   -0.418275
    24  O   -0.498354
    25  H    0.368880
    26  C   -0.104546
    27  O   -0.006458
    28  C   -0.040186
    29  O   -0.491337
    30  H    0.352464
    31  H    0.346509
    32  H    0.130182
    33  H    0.139065
    34  H    0.142923
    35  H    0.126636
    36  H    0.125890
    37  H    0.151733
    38  H    0.133386
    39  H    0.144329
    40  H    0.168132
    41  H    0.132659
    42  H    0.122358
    43  H    0.103763
    44  H    0.129757
    45  H    0.129802
 Sum of Mulliken atomic charges =   0.00000

 Dipole moment (field-independent basis, Debye):
    X=              2.5481    Y=              1.0246    Z=             -3.1265  Tot=              4.1615
 Quadrupole moment (field-independent basis, Debye-Ang):
   XX=           -115.5376   YY=           -142.3224   ZZ=           -139.6812
   XY=             17.8534   XZ=              5.3890   YZ=             -2.3349

  Exact polarizability: 231.640  -1.739 197.970   1.601  -0.012 144.046
 Approx polarizability: 273.417  -1.868 258.844   1.428  -0.035 240.509

 ******    7 imaginary frequencies (negative Signs) ******

                     1                      2                      3
                     A                      A                      A
 Frequencies --  -293.6700              -259.3764              -193.7309
 Red. masses --     1.7802                 1.6651                 1.2343
 Frc consts  --     0.0905                 0.0660                 0.0273
 IR Inten    --     6.7775                 1.9184                98.1834
 Raman Activ --     0.0719                 0.0413                 0.8220

                     4                      5                      6
                     A                      A                      A
 Frequencies --  -124.3804               -72.7107               -50.3240
 Red. masses --     1.5670                 4.5639                 5.7243
 Frc consts  --     0.0143                 0.0142                 0.0085
 IR Inten    --    90.0728                11.4586                 1.0402
 Raman Activ --     0.5242                 0.2398                 0.0448

                     7                      8                      9
                     A                      A                      A
 Frequencies --   -31.9157                55.8934                59.8436
 Red. masses --     6.1034                 6.9210                 6.6710
 Frc consts  --     0.0037                 0.0127                 0.0141
 IR Inten    --     1.1129                 1.0813                 1.8420
 Raman Activ --     0.0686                 0.1345                 0.0353

                    10                     11                     12
                     A                      A                      A
 Frequencies --    73.3954                92.0987               130.2658
 Red. masses --     5.5758                 5.8657                 5.9672
 Frc consts  --     0.0177                 0.0293                 0.0597
 IR Inten    --     9.5649                 2.5638                 1.3015
 Raman Activ --     0.1090                 0.1840                 0.1185

                    13                     14                     15
                     A                      A                      A
 Frequencies --   146.1293               172.9886               186.6512
 Red. masses --     6.0715                 6.9594                 5.7674
 Frc consts  --     0.0764                 0.1227                 0.1184
 IR Inten    --     5.5052                 0.3034                 5.2166
 Raman Activ --     0.3736                 0.2738                 0.8661

                    16                     17                     18
                     A                      A                      A
 Frequencies --   199.2367               233.8560               263.2183
 Red. masses --     6.6600                 6.3539                 4.3031
 Frc consts  --     0.1558                 0.2047                 0.1757
 IR Inten    --     0.7773                 3.4608                15.4170
 Raman Activ --     1.5341                 1.0635                 0.1364

                    19                     20                     21
                     A                      A                      A
 Frequencies --   281.7923               286.5882               302.7348
 Red. masses --     4.0789                 5.7622                 4.7227
 Frc consts  --     0.1908                 0.2788                 0.2550
 IR Inten    --     3.3641                 3.3082                 1.5087
 Raman Activ --     0.1393                 0.5959                 0.6965

                    22                     23                     24
                     A                      A                      A
 Frequencies --   307.8963               323.0398               326.7101
 Red. masses --     5.5836                 6.2103                 4.2623
 Frc consts  --     0.3119                 0.3818                 0.2681
 IR Inten    --     3.2723                 1.6682                 4.0760
 Raman Activ --     0.4804                 3.7133                 1.8001

                    25                     26                     27
                     A                      A                      A
 Frequencies --   345.7788               354.5882               377.6015
 Red. masses --     6.3711                 5.1405                 6.8724
 Frc consts  --     0.4488                 0.3808                 0.5773
 IR Inten    --     9.2557                 2.6688                 1.7330
 Raman Activ --     2.3665                 2.8330                 1.5631

                    28                     29                     30
                     A                      A                      A
 Frequencies --   397.4502               422.2618               432.1611
 Red. masses --     4.5292                 5.9889                 4.8367
 Frc consts  --     0.4215                 0.6292                 0.5322
 IR Inten    --    10.1825                 2.4353                 0.8782
 Raman Activ --     0.8609                 8.2145                 1.5052

                    31                     32                     33
                     A                      A                      A
 Frequencies --   442.0969               472.1829               492.3401
 Red. masses --     4.7590                 4.2845                 4.2389
 Frc consts  --     0.5480                 0.5628                 0.6054
 IR Inten    --     4.5420                 7.9756                16.9972
 Raman Activ --     3.3351                 2.2006                 0.1805

                    34                     35                     36
                     A                      A                      A
 Frequencies --   503.3820               531.0261               570.3305
 Red. masses --     4.1105                 2.9621                 4.1131
 Frc consts  --     0.6137                 0.4921                 0.7883
 IR Inten    --     8.3888                 6.2199                 7.7730
 Raman Activ --     3.8370                 3.4185                 1.7804

                    37                     38                     39
                     A                      A                      A
 Frequencies --   577.8818               596.0907               618.3263
 Red. masses --     2.9200                 6.3729                 5.3278
 Frc consts  --     0.5745                 1.3342                 1.2002
 IR Inten    --    44.5286                 2.2130                 9.1171
 Raman Activ --     0.8068                 0.8799                 0.6231

                    40                     41                     42
                     A                      A                      A
 Frequencies --   639.6306               688.9532               696.2363
 Red. masses --     3.8694                 2.0810                 1.2360
 Frc consts  --     0.9327                 0.5820                 0.3530
 IR Inten    --    43.4979                15.8594               119.6812
 Raman Activ --     0.9940                 1.1743                 2.4613

                    43                     44                     45
                     A                      A                      A
 Frequencies --   704.7501               721.6715               757.1959
 Red. masses --     1.3391                 1.0819                 1.0967
 Frc consts  --     0.3919                 0.3320                 0.3705
 IR Inten    --    46.6359               102.9219               143.6819
 Raman Activ --     1.0798                 1.4684                 3.5392

                    46                     47                     48
                     A                      A                      A
 Frequencies --   765.5909               844.1026               854.1477
 Red. masses --     1.0661                 1.5883                 1.7881
 Frc consts  --     0.3682                 0.6667                 0.7686
 IR Inten    --    74.5267                21.6486                 7.6986
 Raman Activ --     1.6216                 0.6140                 0.5475

                    49                     50                     51
                     A                      A                      A
 Frequencies --   888.8333               933.3677               960.2337
 Red. masses --     1.1427                 5.0999                 5.2545
 Frc consts  --     0.5319                 2.6177                 2.8545
 IR Inten    --    48.8090                89.2978                11.9284
 Raman Activ --     1.0836                 2.4051                 0.5415

                    52                     53                     54
                     A                      A                      A
 Frequencies --   968.7538               985.4977               991.6422
 Red. masses --     5.5449                 6.6449                 6.5233
 Frc consts  --     3.0660                 3.8023                 3.7794
 IR Inten    --    12.1600               162.3709               268.8366
 Raman Activ --     2.7135                 0.8823                 1.7628

                    55                     56                     57
                     A                      A                      A
 Frequencies --   996.2472              1017.7983              1027.8102
 Red. masses --     4.5154                 7.0446                 5.3727
 Frc consts  --     2.6405                 4.2996                 3.3440
 IR Inten    --   255.6397                12.5321               165.1693
 Raman Activ --     1.5373                 2.4792                 2.9816

                    58                     59                     60
                     A                      A                      A
 Frequencies --  1040.0157              1056.6975              1067.2390
 Red. masses --     5.2359                 3.8163                 5.1173
 Frc consts  --     3.3367                 2.5107                 3.4341
 IR Inten    --   266.1384                91.1104                17.0535
 Raman Activ --     2.0640                 4.6624                 2.0298

                    61                     62                     63
                     A                      A                      A
 Frequencies --  1068.2304              1075.7766              1076.6425
 Red. masses --     4.9788                 4.4388                 3.9593
 Frc consts  --     3.3474                 3.0267                 2.7040
 IR Inten    --    24.6316                71.8079               112.8546
 Raman Activ --     1.8112                 3.8248                20.9609

                    64                     65                     66
                     A                      A                      A
 Frequencies --  1102.4471              1113.2281              1116.7895
 Red. masses --     3.3026                 2.3924                 2.9959
 Frc consts  --     2.3649                 1.7468                 2.2015
 IR Inten    --     6.4245                 2.2159                98.2446
 Raman Activ --    13.6972                 4.7170                 6.0114

                    67                     68                     69
                     A                      A                      A
 Frequencies --  1125.8772              1131.7244              1138.2566
 Red. masses --     2.2458                 2.0444                 2.2141
 Frc consts  --     1.6773                 1.5428                 1.6902
 IR Inten    --    43.2129                14.1955                38.1346
 Raman Activ --     6.5574                 2.5104                 3.1766

                    70                     71                     72
                     A                      A                      A
 Frequencies --  1141.5962              1151.6362              1156.0130
 Red. masses --     2.5214                 2.3614                 1.8949
 Frc consts  --     1.9361                 1.8452                 1.4920
 IR Inten    --    21.2743                17.7387                20.4008
 Raman Activ --     3.9203                 4.8438                 4.5206

                    73                     74                     75
                     A                      A                      A
 Frequencies --  1162.1035              1164.2748              1186.0735
 Red. masses --     1.9940                 1.7772                 2.9429
 Frc consts  --     1.5866                 1.4194                 2.4392
 IR Inten    --    86.5002                 0.7830                 5.0378
 Raman Activ --     4.2820                 1.8817                 1.8875

                    76                     77                     78
                     A                      A                      A
 Frequencies --  1207.2323              1209.7893              1226.3418
 Red. masses --     1.3050                 1.4868                 1.2904
 Frc consts  --     1.1206                 1.2821                 1.1434
 IR Inten    --    13.4690                16.2671                 1.0720
 Raman Activ --     1.2519                 2.9667                 0.7412

                    79                     80                     81
                     A                      A                      A
 Frequencies --  1237.6602              1238.2553              1264.9584
 Red. masses --     1.2362                 1.3862                 1.2671
 Frc consts  --     1.1157                 1.2523                 1.1945
 IR Inten    --     4.3273                 1.1094                 6.4162
 Raman Activ --     1.4027                 3.5982                 0.2769

                    82                     83                     84
                     A                      A                      A
 Frequencies --  1274.7862              1290.3225              1292.8401
 Red. masses --     1.3982                 1.2598                 1.3905
 Frc consts  --     1.3387                 1.2358                 1.3694
 IR Inten    --    35.4287                50.0655                12.5396
 Raman Activ --     0.5885                 8.0060                 1.8714

                    85                     86                     87
                     A                      A                      A
 Frequencies --  1296.8720              1303.2654              1305.3091
 Red. masses --     1.3383                 1.2056                 1.3158
 Frc consts  --     1.3262                 1.2065                 1.3208
 IR Inten    --     8.0375                 7.4557                21.9724
 Raman Activ --     1.7855                 4.4518                 4.3002

                    88                     89                     90
                     A                      A                      A
 Frequencies --  1307.6536              1328.4953              1334.1140
 Red. masses --     1.2922                 1.2784                 1.2540
 Frc consts  --     1.3018                 1.3293                 1.3150
 IR Inten    --    24.4496                 9.0758                18.3572
 Raman Activ --     5.4759                 7.3746                 3.5196

                    91                     92                     93
                     A                      A                      A
 Frequencies --  1346.7122              1355.2004              1358.5608
 Red. masses --     1.4644                 1.1860                 1.3463
 Frc consts  --     1.5648                 1.2834                 1.4640
 IR Inten    --    15.5835                33.8436                 3.0415
 Raman Activ --     7.4007                 3.2050                 7.5989

                    94                     95                     96
                     A                      A                      A
 Frequencies --  1366.3159              1370.4580              1380.2640
 Red. masses --     1.5014                 1.2083                 1.1729
 Frc consts  --     1.6514                 1.3370                 1.3165
 IR Inten    --     9.1533                13.7337                10.7960
 Raman Activ --     5.5126                 3.5953                 4.4520

                    97                     98                     99
                     A                      A                      A
 Frequencies --  1386.1362              1390.4997              1401.8609
 Red. masses --     1.2122                 1.3242                 1.3513
 Frc consts  --     1.3723                 1.5085                 1.5646
 IR Inten    --     2.8325                54.1631                12.1088
 Raman Activ --     0.3798                 3.7691                 6.0911

                   100                    101                    102
                     A                      A                      A
 Frequencies --  1408.6734              1454.8698              1459.2559
 Red. masses --     1.4834                 1.0929                 1.3512
 Frc consts  --     1.7343                 1.3629                 1.6953
 IR Inten    --    26.2633                10.5746                29.5060
 Raman Activ --     1.9739                 4.0178                 2.0415

                   103                    104                    105
                     A                      A                      A
 Frequencies --  1467.9045              1468.3723              1483.5366
 Red. masses --     1.1144                 1.2337                 1.2870
 Frc consts  --     1.4148                 1.5672                 1.6689
 IR Inten    --     7.5635                10.9740                55.8157
 Raman Activ --     4.6201                 0.8784                 1.2491

                   106                    107                    108
                     A                      A                      A
 Frequencies --  1492.5588              1511.3830              3234.4428
 Red. masses --     1.3466                 1.2779                 1.0783
 Frc consts  --     1.7675                 1.7199                 6.6467
 IR Inten    --    24.2019                40.1522                20.7358
 Raman Activ --     1.1969                 1.8864                90.0841

                   109                    110                    111
                     A                      A                      A
 Frequencies --  3248.9026              3258.6967              3261.3111
 Red. masses --     1.0585                 1.0604                 1.0808
 Frc consts  --     6.5829                 6.6345                 6.7732
 IR Inten    --    27.8089               149.8238                11.4605
 Raman Activ --    73.4745                36.3054                41.3919

                   112                    113                    114
                     A                      A                      A
 Frequencies --  3272.8348              3275.7580              3277.4234
 Red. masses --     1.0719                 1.0832                 1.0813
 Frc consts  --     6.7648                 6.8482                 6.8433
 IR Inten    --   317.2309                 1.2978                84.1631
 Raman Activ --   243.6515               142.6142                50.4053

                   115                    116                    117
                     A                      A                      A
 Frequencies --  3278.3590              3280.1840              3283.1289
 Red. masses --     1.0816                 1.0866                 1.0839
 Frc consts  --     6.8491                 6.8882                 6.8838
 IR Inten    --    99.2595                30.2911                 6.2515
 Raman Activ --    23.9466                 8.3516               150.0740

                   118                    119                    120
                     A                      A                      A
 Frequencies --  3287.3616              3291.8125              3297.1937
 Red. masses --     1.0871                 1.0875                 1.0923
 Frc consts  --     6.9219                 6.9431                 6.9964
 IR Inten    --     4.1402                49.4659                35.1458
 Raman Activ --    24.7021                25.9000                15.1386

                   121                    122                    123
                     A                      A                      A
 Frequencies --  3304.3274              3314.3650              3332.4858
 Red. masses --     1.0959                 1.1010                 1.0655
 Frc consts  --     7.0498                 7.1261                 6.9720
 IR Inten    --    83.3482                74.8788               315.8104
 Raman Activ --    16.6868                17.0640               115.2020

                   124                    125                    126
                     A                      A                      A
 Frequencies --  3350.2158              3355.4704              3359.4130
 Red. masses --     1.0649                 1.0714                 1.0658
 Frc consts  --     7.0423                 7.1072                 7.0865
 IR Inten    --    54.1116                46.9832                24.3075
 Raman Activ --    93.4301               163.0019               120.7542

                   127                    128                    129
                     A                      A                      A
 Frequencies --  3367.7915              3872.0833              3877.6843
 Red. masses --     1.0665                 1.0677                 1.0674
 Frc consts  --     7.1269                 9.4317                 9.4562
 IR Inten    --    45.3204                67.4523                75.9273
 Raman Activ --   130.2312                86.9717               109.2553

 - Thermochemistry -
 -------------------
 Temperature   298.150 Kelvin.  Pressure   1.00000 Atm.
 Atom     1 has atomic number  8 and mass  15.99491

 Molecular mass:   342.11621 amu.
 Principal axes and moments of inertia in atomic units:
                           1         2         3
     Eigenvalues --  4535.37743********************
           X            0.99996   0.00838   0.00090
           Y           -0.00838   0.99996   0.00095
           Z           -0.00089  -0.00096   1.00000
 This molecule is an asymmetric top.
 Rotational symmetry number  1.
 Warning -- assumption of classical behavior for rotation
           may cause significant error
 Rotational temperatures (Kelvin)      0.01910     0.00706     0.00531
 Rotational constants (GHZ):           0.39793     0.14702     0.11055
    7 imaginary frequencies ignored.
 Zero-point vibrational energy     974924.4 (Joules/Mol)
                                  233.01251 (Kcal/Mol)
 Warning -- explicit consideration of  32 degrees of freedom as
           vibrations may cause significant error
 Vibrational temperatures:     80.42    86.10   105.60   132.51   187.42
          (Kelvin)            210.25   248.89   268.55   286.66   336.47
                              378.71   405.44   412.34   435.57   442.99
                              464.78   470.06   497.50   510.17   543.28
                              571.84   607.54   621.78   636.08   679.37
                              708.37   724.25   764.03   820.58   831.44
                              857.64   889.63   920.28   991.25  1001.73
                             1013.98  1038.32  1089.43  1101.51  1214.47
                             1228.93  1278.83  1342.91  1381.56  1393.82
                             1417.91  1426.75  1433.38  1464.38  1478.79
                             1496.35  1520.35  1535.52  1536.94  1547.80
                             1549.05  1586.17  1601.68  1606.81  1619.88
                             1628.30  1637.70  1642.50  1656.95  1663.24
                             1672.01  1675.13  1706.49  1736.94  1740.61
                             1764.43  1780.71  1781.57  1819.99  1834.13
                             1856.48  1860.11  1865.91  1875.11  1878.05
                             1881.42  1911.41  1919.49  1937.62  1949.83
                             1954.66  1965.82  1971.78  1985.89  1994.34
                             2000.62  2016.96  2026.76  2093.23  2099.54
                             2111.98  2112.66  2134.48  2147.46  2174.54
                             4653.64  4674.44  4688.53  4692.29  4708.87
                             4713.08  4715.48  4716.82  4719.45  4723.68
                             4729.77  4736.18  4743.92  4754.18  4768.63
                             4794.70  4820.21  4827.77  4833.44  4845.49
                             5571.06  5579.12

 Zero-point correction=                           0.371329 (Hartree/Particle)
 Thermal correction to Energy=                    0.389647
 Thermal correction to Enthalpy=                  0.390591
 Thermal correction to Gibbs Free Energy=         0.325873
 Sum of electronic and zero-point Energies=          -1297.632077
 Sum of electronic and thermal Energies=             -1297.613759
 Sum of electronic and thermal Enthalpies=           -1297.612815
 Sum of electronic and thermal Free Energies=        -1297.677533

                     E (Thermal)             CV                S
                      KCal/Mol        Cal/Mol-Kelvin    Cal/Mol-Kelvin
 Total                  244.507             75.798            136.211
 Electronic               0.000              0.000              0.000
 Translational            0.889              2.981             43.384
 Rotational               0.889              2.981             35.162
 Vibrational            242.730             69.837             57.665
 Vibration     1          0.596              1.975              4.597
 Vibration     2          0.597              1.973              4.462
 Vibration     3          0.599              1.967              4.060
 Vibration     4          0.602              1.955              3.615
 Vibration     5          0.612              1.923              2.942
 Vibration     6          0.617              1.907              2.722
 Vibration     7          0.626              1.876              2.403
 Vibration     8          0.632              1.858              2.261
 Vibration     9          0.637              1.841              2.140
 Vibration    10          0.654              1.789              1.849
 Vibration    11          0.670              1.740              1.640
 Vibration    12          0.681              1.707              1.523
 Vibration    13          0.684              1.699              1.494
 Vibration    14          0.694              1.669              1.402
 Vibration    15          0.698              1.659              1.374
 Vibration    16          0.708              1.629              1.295
 Vibration    17          0.710              1.622              1.276
 Vibration    18          0.724              1.584              1.185
 Vibration    19          0.730              1.566              1.146
 Vibration    20          0.748              1.518              1.049
 Vibration    21          0.764              1.476              0.972
 Vibration    22          0.785              1.422              0.884
 Vibration    23          0.793              1.400              0.852
 Vibration    24          0.802              1.378              0.820
 Vibration    25          0.829              1.312              0.731
 Vibration    26          0.848              1.267              0.678
 Vibration    27          0.859              1.243              0.650
 Vibration    28          0.886              1.181              0.585
 Vibration    29          0.926              1.095              0.504
 Vibration    30          0.934              1.079              0.489
 Vibration    31          0.954              1.040              0.456
 Vibration    32          0.978              0.993              0.419

 Normal termination of Gaussian 09 at Fri Feb 12 12:27:54 2016.
