 Gaussian 09, Revision B.01,
 Gaussian 09:  EM64L-G09RevB.01 12-Aug-2010

 -------------------------------------------------
 # freq=raman b3lyp/6-31+g(2d,p) geom=connectivity
 -------------------------------------------------

 -----------------
 483 9300/9300.com
 -----------------
 Symbolic Z-matrix:
 Charge =  0 Multiplicity = 1

                         Standard orientation:
 ---------------------------------------------------------------------
 Center     Atomic      Atomic             Coordinates (Angstroms)
 Number     Number       Type             X           Y           Z
 ---------------------------------------------------------------------
      1          8           0       -4.977987   -0.316860    0.339993
      2          6           0       -3.668287   -0.078188   -0.195949
      3          6           0       -3.178815    1.302020    0.209492
      4          8           0       -4.112318    2.223507   -0.375157
      5          1           0       -4.962286    2.118887    0.139968
      6          6           0       -1.736995    1.566539   -0.193885
      7          8           0       -1.238918    2.809702    0.321595
      8          1           0       -0.285548    2.896369    0.034023
      9          6           0       -3.036432   -2.518219   -0.046843
     10          8           0       -4.305954   -3.163084    0.134241
     11          1           0       -4.189590   -4.127991   -0.101516
     12          6           0       -2.684549   -1.095963    0.358056
     13          8           0       -1.354084   -0.819098   -0.103918
     14          6           0       -0.843071    0.451527    0.324450
     15          8           0        0.347903    0.603360   -0.460995
     16          6           0        1.564624    0.178481    0.170224
     17          6           0        1.893113   -1.200380   -0.378546
     18          8           0        0.918135   -2.212925   -0.089164
     19          1           0        0.019579   -1.796586   -0.232213
     20          6           0        3.273547   -1.620135    0.100106
     21          8           0        3.656948   -2.867522   -0.498233
     22          1           0        4.476614   -3.237284   -0.061417
     23          6           0        2.317199    2.700273    0.282136
     24          8           0        1.416480    3.426130   -0.566293
     25          1           0        1.624525    4.380910   -0.352375
     26          6           0        2.589377    1.262176   -0.126024
     27          8           0        3.816002    0.753792    0.418489
     28          6           0        4.239893   -0.480042   -0.178151
     29          8           0        5.406250   -0.727848    0.621682
     30          1           0        6.157473   -0.896740    0.048325
     31          1           0        4.473629   -0.376257   -1.217139
     32          1           0        3.227677   -1.763089    1.159521
     33          1           0        1.942837   -1.109862   -1.443550
     34          1           0        1.412440    0.113007    1.227321
     35          1           0        2.710766    1.276122   -1.189025
     36          1           0        3.250299    3.223496    0.303619
     37          1           0        1.912019    2.695240    1.272441
     38          1           0       -5.599518   -0.447050   -0.379973
     39          1           0       -2.321607   -3.144043    0.445366
     40          1           0       -2.694935   -1.033075    1.426156
     41          1           0       -3.697632   -0.150276   -1.263114
     42          1           0       -3.248161    1.383754    1.274109
     43          1           0       -1.677033    1.588029   -1.261988
     44          1           0       -0.661338    0.505228    1.377536
     45          1           0       -2.827477   -2.580534   -1.094390
 ---------------------------------------------------------------------

 SCF Done:  E(RB3LYP) =  -1297.99336676     A.U. after   13 cycles

 The electronic state is 1-A.
 Alpha  occ. eigenvalues --  -19.19121 -19.19121 -19.17899 -19.17323 -19.17139
 Alpha  occ. eigenvalues --  -19.16592 -19.16179 -19.16027 -19.15012 -19.14170
 Alpha  occ. eigenvalues --  -19.13340 -10.30810 -10.30231 -10.25832 -10.25806
 Alpha  occ. eigenvalues --  -10.25795 -10.25205 -10.24674 -10.24375 -10.24215
 Alpha  occ. eigenvalues --  -10.24091 -10.23950 -10.23795  -1.10629  -1.08894
 Alpha  occ. eigenvalues --   -1.05852  -1.05164  -1.04248  -1.02878  -1.02583
 Alpha  occ. eigenvalues --   -1.02174  -1.01832  -1.00604  -0.99965  -0.82033
 Alpha  occ. eigenvalues --   -0.80338  -0.79240  -0.78120  -0.72076  -0.69885
 Alpha  occ. eigenvalues --   -0.67045  -0.64645  -0.63282  -0.62669  -0.61230
 Alpha  occ. eigenvalues --   -0.60177  -0.56532  -0.56000  -0.54620  -0.54340
 Alpha  occ. eigenvalues --   -0.53811  -0.53472  -0.52744  -0.51735  -0.51098
 Alpha  occ. eigenvalues --   -0.50716  -0.50221  -0.49476  -0.48506  -0.47029
 Alpha  occ. eigenvalues --   -0.45905  -0.44983  -0.44493  -0.43728  -0.42955
 Alpha  occ. eigenvalues --   -0.42641  -0.41931  -0.41071  -0.40004  -0.39808
 Alpha  occ. eigenvalues --   -0.39148  -0.37724  -0.37216  -0.36235  -0.35964
 Alpha  occ. eigenvalues --   -0.35567  -0.34439  -0.34364  -0.33872  -0.33556
 Alpha  occ. eigenvalues --   -0.32421  -0.31525  -0.30928  -0.30376  -0.29861
 Alpha  occ. eigenvalues --   -0.29347  -0.28533  -0.27941  -0.27779  -0.26548
 Alpha  occ. eigenvalues --   -0.26433
 Alpha virt. eigenvalues --   -0.02068  -0.01663  -0.01461  -0.00004   0.00239
 Alpha virt. eigenvalues --    0.00747   0.01905   0.02204   0.02917   0.03401
 Alpha virt. eigenvalues --    0.03619   0.04421   0.04510   0.05402   0.05800

 Mulliken atomic charges:
              1
     1  O   -0.546390
     2  C    0.052430
     3  C    0.107028
     4  O   -0.554069
     5  H    0.344187
     6  C    0.027513
     7  O   -0.573790
     8  H    0.409272
     9  C   -0.271692
    10  O   -0.534746
    11  H    0.339034
    12  C    0.165086
    13  O   -0.243885
    14  C    0.030493
    15  O   -0.237144
    16  C    0.371235
    17  C    0.168704
    18  O   -0.574206
    19  H    0.407416
    20  C   -0.053949
    21  O   -0.547725
    22  H    0.334132
    23  C   -0.286536
    24  O   -0.519068
    25  H    0.351846
    26  C   -0.132755
    27  O   -0.252277
    28  C    0.225313
    29  O   -0.526937
    30  H    0.328572
    31  H    0.133474
    32  H    0.133974
    33  H    0.117580
    34  H    0.108608
    35  H    0.121833
    36  H    0.152533
    37  H    0.154571
    38  H    0.342610
    39  H    0.147489
    40  H    0.114977
    41  H    0.123378
    42  H    0.123378
    43  H    0.137266
    44  H    0.139763
    45  H    0.141472
 Sum of Mulliken atomic charges =   0.00000

 Dipole moment (field-independent basis, Debye):
    X=              2.3413    Y=              0.3203    Z=             -0.6307  Tot=              2.4458
 Quadrupole moment (field-independent basis, Debye-Ang):
   XX=           -121.3599   YY=           -134.2814   ZZ=           -139.2392
   XY=             12.7500   XZ=             -1.5906   YZ=              3.0954

  Exact polarizability: 231.076  -1.188 199.377   0.760   1.234 143.649
 Approx polarizability: 271.168  -0.156 258.564   0.903   1.271 240.825

 ******    6 imaginary frequencies (negative Signs) ******

                     1                      2                      3
                     A                      A                      A
 Frequencies --  -341.2898              -283.9473              -255.8577
 Red. masses --     1.6749                 1.1584                 1.7366
 Frc consts  --     0.1149                 0.0550                 0.0670
 IR Inten    --     6.3911               101.5666                 8.1125
 Raman Activ --     0.0391                 0.9796                 0.0950

                     4                      5                      6
                     A                      A                      A
 Frequencies --  -253.2252               -55.4949               -47.7851
 Red. masses --     1.1435                 6.5914                 6.3169
 Frc consts  --     0.0432                 0.0120                 0.0085
 IR Inten    --   108.5247                 1.1402                 0.1885
 Raman Activ --     0.7088                 0.0266                 0.0239

                     7                      8                      9
                     A                      A                      A
 Frequencies --    53.1987                61.1940                75.6939
 Red. masses --     6.2399                 6.5807                 6.2322
 Frc consts  --     0.0104                 0.0145                 0.0210
 IR Inten    --     2.6294                 0.5607                 1.6651
 Raman Activ --     0.0326                 0.0248                 0.3275

                    10                     11                     12
                     A                      A                      A
 Frequencies --    85.8648               102.1686               121.4151
 Red. masses --     6.6497                 6.2879                 5.6255
 Frc consts  --     0.0289                 0.0387                 0.0489
 IR Inten    --     1.6665                 0.8845                 2.8307
 Raman Activ --     0.0406                 0.0457                 0.1001

                    13                     14                     15
                     A                      A                      A
 Frequencies --   135.0699               169.0371               175.1906
 Red. masses --     6.1069                 6.0340                 6.6764
 Frc consts  --     0.0656                 0.1016                 0.1207
 IR Inten    --     5.3701                 1.1617                 0.0708
 Raman Activ --     0.3508                 0.1590                 0.1154

                    16                     17                     18
                     A                      A                      A
 Frequencies --   206.3267               228.6679               267.3162
 Red. masses --     7.0128                 6.0494                 4.5043
 Frc consts  --     0.1759                 0.1864                 0.1896
 IR Inten    --     0.4861                 2.2299                12.8356
 Raman Activ --     2.1752                 1.2985                 0.3822

                    19                     20                     21
                     A                      A                      A
 Frequencies --   277.3850               291.3926               300.6319
 Red. masses --     5.4918                 5.4925                 5.9588
 Frc consts  --     0.2490                 0.2748                 0.3173
 IR Inten    --     1.7274                 1.7696                 6.4212
 Raman Activ --     0.1461                 0.0938                 0.5648

                    22                     23                     24
                     A                      A                      A
 Frequencies --   313.1807               316.2122               325.4710
 Red. masses --     6.0646                 5.2736                 5.7581
 Frc consts  --     0.3505                 0.3107                 0.3594
 IR Inten    --     6.3206                 2.3523                 0.7348
 Raman Activ --     2.0644                 2.0838                 1.4570

                    25                     26                     27
                     A                      A                      A
 Frequencies --   327.9557               356.3245               391.4348
 Red. masses --     6.0371                 5.2676                 5.0142
 Frc consts  --     0.3826                 0.3940                 0.4527
 IR Inten    --     5.2176                 4.1373                 0.9477
 Raman Activ --     5.2602                 0.5039                 0.1005

                    28                     29                     30
                     A                      A                      A
 Frequencies --   411.3071               416.7267               424.4935
 Red. masses --     4.5877                 6.8952                 4.9502
 Frc consts  --     0.4573                 0.7055                 0.5255
 IR Inten    --    15.5061                 2.5025                 8.8857
 Raman Activ --     3.3970                 7.7632                 1.1952

                    31                     32                     33
                     A                      A                      A
 Frequencies --   450.9867               488.0240               492.5978
 Red. masses --     5.4293                 4.2708                 4.4726
 Frc consts  --     0.6506                 0.5993                 0.6394
 IR Inten    --     5.8540                 4.1580                12.1683
 Raman Activ --     2.8424                 2.9976                 0.2086

                    34                     35                     36
                     A                      A                      A
 Frequencies --   507.3949               533.8904               564.8463
 Red. masses --     3.7759                 3.1649                 4.5110
 Frc consts  --     0.5728                 0.5315                 0.8480
 IR Inten    --    11.5890                 6.1908                14.5866
 Raman Activ --     1.4322                 4.2549                 1.5761

                    37                     38                     39
                     A                      A                      A
 Frequencies --   586.5828               604.7892               624.9447
 Red. masses --     3.0634                 5.2546                 4.3287
 Frc consts  --     0.6210                 1.1324                 0.9961
 IR Inten    --    34.4447                 4.3808                 6.6076
 Raman Activ --     0.1991                 0.6626                 0.2447

                    40                     41                     42
                     A                      A                      A
 Frequencies --   643.5465               695.0198               697.5771
 Red. masses --     4.4709                 1.0859                 4.3821
 Frc consts  --     1.0909                 0.3090                 1.2564
 IR Inten    --    48.6884               103.1128                 9.2469
 Raman Activ --     1.5316                 1.6873                 0.7875

                    43                     44                     45
                     A                      A                      A
 Frequencies --   725.0853               725.5950               765.5055
 Red. masses --     1.1220                 1.0730                 1.0987
 Frc consts  --     0.3475                 0.3328                 0.3794
 IR Inten    --    89.2320                98.0553               107.6443
 Raman Activ --     1.0628                 2.2652                 1.4415

                    46                     47                     48
                     A                      A                      A
 Frequencies --   814.6046               843.2654               847.9546
 Red. masses --     1.0819                 1.3290                 1.7191
 Frc consts  --     0.4230                 0.5568                 0.7283
 IR Inten    --    94.1938                25.9239                 4.4103
 Raman Activ --     2.0264                 0.2920                 1.3006

                    49                     50                     51
                     A                      A                      A
 Frequencies --   858.7206               922.5649               949.8518
 Red. masses --     1.4079                 5.6747                 5.3886
 Frc consts  --     0.6117                 2.8457                 2.8644
 IR Inten    --    52.8348               136.0081               159.0716
 Raman Activ --     1.1241                 2.4710                 0.7440

                    52                     53                     54
                     A                      A                      A
 Frequencies --   970.3791               983.2909               989.7714
 Red. masses --     5.9566                 5.7955                 5.8079
 Frc consts  --     3.3047                 3.3014                 3.3523
 IR Inten    --     7.7818                12.9836               164.2516
 Raman Activ --     2.4690                 1.1913                 1.3487

                    55                     56                     57
                     A                      A                      A
 Frequencies --  1004.0993              1012.6262              1016.0848
 Red. masses --     4.4130                 7.8814                 5.9875
 Frc consts  --     2.6214                 4.7616                 3.6421
 IR Inten    --   151.7623               170.4446                87.8773
 Raman Activ --     4.8271                 1.3822                 3.1758

                    58                     59                     60
                     A                      A                      A
 Frequencies --  1040.1201              1047.3664              1067.1116
 Red. masses --     5.5978                 6.5681                 3.5083
 Frc consts  --     3.5681                 4.2451                 2.3538
 IR Inten    --   286.9760               131.0166                33.7797
 Raman Activ --     2.8071                 1.6048                10.3011

                    61                     62                     63
                     A                      A                      A
 Frequencies --  1068.9615              1072.4751              1087.7204
 Red. masses --     3.3614                 4.5093                 4.1052
 Frc consts  --     2.2630                 3.0559                 2.8617
 IR Inten    --    90.7947                63.8000                37.4400
 Raman Activ --    18.9019                 9.0218                 4.0927

                    64                     65                     66
                     A                      A                      A
 Frequencies --  1096.3046              1102.5353              1108.9745
 Red. masses --     2.5079                 2.2320                 3.2432
 Frc consts  --     1.7759                 1.5986                 2.3500
 IR Inten    --    54.2503                36.5712                 9.4863
 Raman Activ --     3.4333                 0.8122                12.7554

                    67                     68                     69
                     A                      A                      A
 Frequencies --  1112.4279              1123.0042              1125.0401
 Red. masses --     2.6013                 2.8693                 2.6631
 Frc consts  --     1.8967                 2.1320                 1.9860
 IR Inten    --     8.2211                28.5415                24.6477
 Raman Activ --     3.2969                 4.2837                10.7348

                    70                     71                     72
                     A                      A                      A
 Frequencies --  1135.3102              1144.4423              1151.2185
 Red. masses --     2.8796                 1.6273                 1.8963
 Frc consts  --     2.1868                 1.2558                 1.4807
 IR Inten    --    66.3929                10.2194                 4.8550
 Raman Activ --     3.4786                 2.6458                 2.9400

                    73                     74                     75
                     A                      A                      A
 Frequencies --  1160.9453              1174.6144              1181.7379
 Red. masses --     2.1857                 1.6640                 1.8610
 Frc consts  --     1.7357                 1.3527                 1.5312
 IR Inten    --    15.8313                 7.7918                 0.8180
 Raman Activ --     3.5609                 1.0644                 2.3360

                    76                     77                     78
                     A                      A                      A
 Frequencies --  1201.1443              1206.5426              1215.7249
 Red. masses --     1.3991                 1.2871                 1.3060
 Frc consts  --     1.1893                 1.1040                 1.1373
 IR Inten    --    28.4960                17.0554                 4.0542
 Raman Activ --     4.1661                 0.7902                 1.0272

                    79                     80                     81
                     A                      A                      A
 Frequencies --  1226.6651              1232.5365              1246.0686
 Red. masses --     1.1931                 1.3049                 1.3234
 Frc consts  --     1.0577                 1.1679                 1.2106
 IR Inten    --     7.6535                 7.1357                22.9250
 Raman Activ --     1.3648                 0.6563                 0.5591

                    82                     83                     84
                     A                      A                      A
 Frequencies --  1262.1027              1279.7768              1287.1371
 Red. masses --     1.1755                 1.2007                 1.3304
 Frc consts  --     1.1032                 1.1587                 1.2986
 IR Inten    --     7.3353                 3.3601                 6.2728
 Raman Activ --     1.0837                 5.1163                 0.7825

                    85                     86                     87
                     A                      A                      A
 Frequencies --  1294.8722              1303.4932              1308.2174
 Red. masses --     1.3258                 1.3353                 1.4347
 Frc consts  --     1.3098                 1.3367                 1.4467
 IR Inten    --    27.2559                10.6925                18.7625
 Raman Activ --     0.2575                 2.1271                 2.1445

                    88                     89                     90
                     A                      A                      A
 Frequencies --  1318.6200              1320.0676              1325.3921
 Red. masses --     1.2245                 1.3349                 1.3200
 Frc consts  --     1.2544                 1.3705                 1.3662
 IR Inten    --     3.0834                17.2571                27.8145
 Raman Activ --     7.7432                 8.7722                 4.6520

                    91                     92                     93
                     A                      A                      A
 Frequencies --  1336.7879              1341.5849              1350.0299
 Red. masses --     1.2738                 1.2355                 1.3304
 Frc consts  --     1.3412                 1.3102                 1.4286
 IR Inten    --    19.4597                46.2050                22.9519
 Raman Activ --     2.6584                 3.3360                 6.8884

                    94                     95                     96
                     A                      A                      A
 Frequencies --  1355.5651              1358.9691              1363.0706
 Red. masses --     1.1154                 1.5096                 1.3431
 Frc consts  --     1.2076                 1.6426                 1.4703
 IR Inten    --    26.6856                10.0462                 9.6752
 Raman Activ --     2.8297                 6.3883                10.1130

                    97                     98                     99
                     A                      A                      A
 Frequencies --  1370.3422              1384.1965              1400.5524
 Red. masses --     1.4650                 1.5682                 1.5988
 Frc consts  --     1.6209                 1.7702                 1.8478
 IR Inten    --     5.5392                17.9615                 7.3361
 Raman Activ --     4.6739                 4.7080                 3.2447

                   100                    101                    102
                     A                      A                      A
 Frequencies --  1419.3724              1451.0256              1471.2455
 Red. masses --     1.4209                 1.2713                 1.1031
 Frc consts  --     1.6866                 1.5771                 1.4068
 IR Inten    --    21.2670                38.9835                 8.4901
 Raman Activ --     1.9301                 1.6574                 5.6777

                   103                    104                    105
                     A                      A                      A
 Frequencies --  1473.3750              1479.8472              1483.5541
 Red. masses --     1.0922                 1.3772                 1.3234
 Frc consts  --     1.3969                 1.7770                 1.7162
 IR Inten    --     2.7675                27.4164                12.0162
 Raman Activ --     4.5371                 1.7297                 0.4246

                   106                    107                    108
                     A                      A                      A
 Frequencies --  1490.8778              1536.2738              3251.0312
 Red. masses --     1.3275                 1.2284                 1.0695
 Frc consts  --     1.7385                 1.7081                 6.6602
 IR Inten    --    36.8514                38.1546               571.6411
 Raman Activ --     1.5682                 1.3907               170.4087

                   109                    110                    111
                     A                      A                      A
 Frequencies --  3252.1545              3257.8797              3266.5986
 Red. masses --     1.0584                 1.0619                 1.0776
 Frc consts  --     6.5957                 6.6408                 6.7749
 IR Inten    --    66.3395                60.0980                20.3270
 Raman Activ --   100.5931               113.4111                13.6940

                   112                    113                    114
                     A                      A                      A
 Frequencies --  3270.8297              3273.5386              3277.4830
 Red. masses --     1.0818                 1.0822                 1.0827
 Frc consts  --     6.8189                 6.8327                 6.8523
 IR Inten    --    44.3017                43.6507                10.0848
 Raman Activ --    98.0310                11.9790               170.4408

                   115                    116                    117
                     A                      A                      A
 Frequencies --  3284.6881              3288.8045              3290.4698
 Red. masses --     1.0847                 1.0846                 1.0863
 Frc consts  --     6.8951                 6.9121                 6.9295
 IR Inten    --    13.9662                42.2308                 6.8950
 Raman Activ --    53.8609                 7.3371                74.4835

                   118                    119                    120
                     A                      A                      A
 Frequencies --  3296.3341              3301.1543              3302.8746
 Red. masses --     1.0903                 1.0835                 1.0843
 Frc consts  --     6.9799                 6.9566                 6.9689
 IR Inten    --    32.4406               300.0038               148.5677
 Raman Activ --   113.8374                40.9178                21.8359

                   121                    122                    123
                     A                      A                      A
 Frequencies --  3303.5127              3308.9515              3317.9618
 Red. masses --     1.0862                 1.0873                 1.1065
 Frc consts  --     6.9842                 7.0140                 7.1769
 IR Inten    --   249.0020               123.4586                26.5756
 Raman Activ --    66.0998                36.3838                52.6176

                   124                    125                    126
                     A                      A                      A
 Frequencies --  3365.7445              3372.7913              3373.2277
 Red. masses --     1.0671                 1.0666                 1.0666
 Frc consts  --     7.1225                 7.1488                 7.1505
 IR Inten    --    52.7467                76.7864                17.4111
 Raman Activ --   151.3966                90.3471               206.2004

                   127                    128                    129
                     A                      A                      A
 Frequencies --  3379.6648              3891.5058              3891.7933
 Red. masses --     1.0656                 1.0673                 1.0675
 Frc consts  --     7.1711                 9.5232                 9.5266
 IR Inten    --    41.6408                77.6868                63.9180
 Raman Activ --   110.1677                98.4777               115.1206

 - Thermochemistry -
 -------------------
 Temperature   298.150 Kelvin.  Pressure   1.00000 Atm.
 Atom     1 has atomic number  8 and mass  15.99491

 Molecular mass:   342.11621 amu.
 Principal axes and moments of inertia in atomic units:
                           1         2         3
     Eigenvalues --  4523.65108********************
           X            0.99997   0.00741  -0.00039
           Y           -0.00741   0.99997   0.00313
           Z            0.00041  -0.00313   1.00000
 This molecule is an asymmetric top.
 Rotational symmetry number  1.
 Warning -- assumption of classical behavior for rotation
           may cause significant error
 Rotational temperatures (Kelvin)      0.01915     0.00721     0.00537
 Rotational constants (GHZ):           0.39896     0.15026     0.11186
    6 imaginary frequencies ignored.
 Zero-point vibrational energy     975360.8 (Joules/Mol)
                                  233.11683 (Kcal/Mol)
 Warning -- explicit consideration of  32 degrees of freedom as
           vibrations may cause significant error
 Vibrational temperatures:     76.54    88.04   108.91   123.54   147.00
          (Kelvin)            174.69   194.34   243.21   252.06   296.86
                              329.00   384.61   399.09   419.25   432.54
                              450.60   454.96   468.28   471.85   512.67
                              563.19   591.78   599.58   610.75   648.87
                              702.16   708.74   730.03   768.15   812.69
                              843.96   870.16   899.15   925.92   999.98
                             1003.66  1043.23  1043.97  1101.39  1172.03
                             1213.27  1220.02  1235.51  1327.36  1366.62
                             1396.16  1414.73  1424.06  1444.67  1456.94
                             1461.92  1496.50  1506.92  1535.33  1538.00
                             1543.05  1564.99  1577.34  1586.30  1595.57
                             1600.53  1615.75  1618.68  1633.46  1646.60
                             1656.34  1670.34  1690.01  1700.26  1728.18
                             1735.94  1749.15  1764.90  1773.34  1792.81
                             1815.88  1841.31  1851.90  1863.03  1875.43
                             1882.23  1897.20  1899.28  1906.94  1923.34
                             1930.24  1942.39  1950.35  1955.25  1961.15
                             1971.61  1991.55  2015.08  2042.16  2087.70
                             2116.79  2119.86  2129.17  2134.50  2145.04
                             2210.35  4677.50  4679.12  4687.36  4699.90
                             4705.99  4709.89  4715.56  4725.93  4731.85
                             4734.25  4742.68  4749.62  4752.09  4753.01
                             4760.84  4773.80  4842.55  4852.69  4853.32
                             4862.58  5599.00  5599.42

 Zero-point correction=                           0.371495 (Hartree/Particle)
 Thermal correction to Energy=                    0.390575
 Thermal correction to Enthalpy=                  0.391519
 Thermal correction to Gibbs Free Energy=         0.324992
 Sum of electronic and zero-point Energies=          -1297.621871
 Sum of electronic and thermal Energies=             -1297.602792
 Sum of electronic and thermal Enthalpies=           -1297.601847
 Sum of electronic and thermal Free Energies=        -1297.668375

                     E (Thermal)             CV                S
                      KCal/Mol        Cal/Mol-Kelvin    Cal/Mol-Kelvin
 Total                  245.090             77.741            140.019
 Electronic               0.000              0.000              0.000
 Translational            0.889              2.981             43.384
 Rotational               0.889              2.981             35.126
 Vibrational            243.312             71.779             61.508
 Vibration     1          0.596              1.976              4.695
 Vibration     2          0.597              1.973              4.418
 Vibration     3          0.599              1.965              4.000
 Vibration     4          0.601              1.959              3.752
 Vibration     5          0.604              1.947              3.413
 Vibration     6          0.609              1.931              3.078
 Vibration     7          0.613              1.918              2.873
 Vibration     8          0.625              1.881              2.446
 Vibration     9          0.627              1.873              2.379
 Vibration    10          0.641              1.831              2.076
 Vibration    11          0.651              1.797              1.889
 Vibration    12          0.672              1.733              1.614
 Vibration    13          0.678              1.715              1.550
 Vibration    14          0.687              1.690              1.466
 Vibration    15          0.693              1.672              1.413
 Vibration    16          0.701              1.649              1.345
 Vibration    17          0.703              1.643              1.330
 Vibration    18          0.710              1.625              1.282
 Vibration    19          0.711              1.620              1.270
 Vibration    20          0.732              1.562              1.138
 Vibration    21          0.759              1.488              0.995
 Vibration    22          0.775              1.446              0.922
 Vibration    23          0.780              1.434              0.903
 Vibration    24          0.786              1.417              0.877
 Vibration    25          0.810              1.359              0.793
 Vibration    26          0.844              1.277              0.689
 Vibration    27          0.848              1.266              0.677
 Vibration    28          0.863              1.234              0.640
 Vibration    29          0.889              1.175              0.579
 Vibration    30          0.921              1.107              0.514
 Vibration    31          0.944              1.060              0.473
 Vibration    32          0.963              1.022              0.441

 Normal termination of Gaussian 09 at Thu Mar 31 02:06:21 2016.
