 Gaussian 09, Revision B.01,
 Gaussian 09:  EM64L-G09RevB.01 12-Aug-2010

 -------------------------------------------------
 # freq=raman b3lyp/6-31+g(2d,p) geom=connectivity
 -------------------------------------------------

 -----------------
 400 5456/5456.com
 -----------------
 Symbolic Z-matrix:
 Charge =  0 Multiplicity = 1

                         Standard orientation:
 ---------------------------------------------------------------------
 Center     Atomic      Atomic             Coordinates (Angstroms)
 Number     Number       Type             X           Y           Z
 ---------------------------------------------------------------------
      1          8           0       -5.081107   -0.416910    0.491898
      2          6           0       -3.796330   -0.091681   -0.057207
      3          6           0       -3.306900    1.341129    0.076109
      4          8           0       -4.306682    2.177479   -0.523577
      5          1           0       -5.196006    1.985078   -0.108629
      6          6           0       -1.836672    1.599053   -0.207121
      7          8           0       -1.468934    2.861640    0.366486
      8          1           0       -0.484911    2.946650    0.210536
      9          6           0       -3.047459   -2.582730   -0.048717
     10          8           0       -4.200764   -3.323144    0.375289
     11          1           0       -4.048433   -4.297578    0.206441
     12          6           0       -2.745131   -1.133215    0.293479
     13          8           0       -1.464954   -0.750539   -0.229943
     14          6           0       -0.864533    0.491602    0.165255
     15          8           0        0.402544    0.634379   -0.493065
     16          6           0        1.649670    0.177703    0.049403
     17          6           0        2.014189   -1.218610   -0.430234
     18          8           0        0.927737   -2.153539   -0.357547
     19          1           0        0.137692   -1.584515   -0.586647
     20          6           0        3.355842   -1.577486    0.188023
     21          8           0        3.742020   -2.840132   -0.373894
     22          1           0        4.730087   -2.862834   -0.226051
     23          6           0        2.357522    2.580845    0.303445
     24          8           0        1.321944    3.447653   -0.180539
     25          1           0        1.701706    4.371743   -0.138674
     26          6           0        2.691671    1.227496   -0.301131
     27          8           0        3.954860    0.798728    0.229333
     28          6           0        4.410915   -0.521644   -0.099802
     29          8           0        5.552994   -0.622650    0.762737
     30          1           0        6.354404   -0.619856    0.234216
     31          1           0       -5.717173   -0.517715   -0.220042
     32          1           0       -2.201288   -3.143866    0.288954
     33          1           0       -3.044351   -2.636025   -1.117384
     34          1           0       -2.649934   -1.101083    1.358751
     35          1           0       -3.935188   -0.211512   -1.111369
     36          1           0       -3.394444    1.548424    1.122181
     37          1           0       -1.755643    1.716979   -1.267511
     38          1           0       -0.715519    0.492145    1.224828
     39          1           0        3.261967    3.151827    0.274133
     40          1           0        2.137173    2.400271    1.334823
     41          1           0        2.763182    1.318973   -1.364812
     42          1           0        1.556280    0.146393    1.114860
     43          1           0        2.211935   -1.114354   -1.476622
     44          1           0        3.240451   -1.682190    1.246617
     45          1           0        4.714045   -0.565446   -1.125030
 ---------------------------------------------------------------------

 SCF Done:  E(RB3LYP) =  -1297.95982168     A.U. after   13 cycles

 The electronic state is 1-A.
 Alpha  occ. eigenvalues --  -19.18928 -19.18911 -19.18884 -19.18326 -19.18100
 Alpha  occ. eigenvalues --  -19.16761 -19.16721 -19.15977 -19.15362 -19.14537
 Alpha  occ. eigenvalues --  -19.14237 -10.31757 -10.31713 -10.26569 -10.26026
 Alpha  occ. eigenvalues --  -10.25899 -10.25509 -10.25461 -10.24854 -10.24541
 Alpha  occ. eigenvalues --  -10.24491 -10.24466 -10.23982  -1.10109  -1.09571
 Alpha  occ. eigenvalues --   -1.05578  -1.05123  -1.04272  -1.03970  -1.03267
 Alpha  occ. eigenvalues --   -1.02411  -1.02143  -1.01193  -1.00773  -0.82881
 Alpha  occ. eigenvalues --   -0.80073  -0.79910  -0.78611  -0.72255  -0.70406
 Alpha  occ. eigenvalues --   -0.68099  -0.65143  -0.63536  -0.62940  -0.61471
 Alpha  occ. eigenvalues --   -0.59622  -0.56936  -0.56327  -0.55858  -0.55156
 Alpha  occ. eigenvalues --   -0.53725  -0.53373  -0.52997  -0.51639  -0.51383
 Alpha  occ. eigenvalues --   -0.51062  -0.50585  -0.49597  -0.48827  -0.46732
 Alpha  occ. eigenvalues --   -0.46565  -0.45442  -0.45006  -0.43941  -0.43507
 Alpha  occ. eigenvalues --   -0.42685  -0.41649  -0.41445  -0.40433  -0.39752
 Alpha  occ. eigenvalues --   -0.38931  -0.38488  -0.37794  -0.36055  -0.35726
 Alpha  occ. eigenvalues --   -0.35483  -0.34797  -0.34266  -0.33859  -0.33503
 Alpha  occ. eigenvalues --   -0.32922  -0.31744  -0.31161  -0.30855  -0.30209
 Alpha  occ. eigenvalues --   -0.29421  -0.28531  -0.28154  -0.27494  -0.27151
 Alpha  occ. eigenvalues --   -0.26472
 Alpha virt. eigenvalues --   -0.02509  -0.02318  -0.01672  -0.00173   0.00130
 Alpha virt. eigenvalues --    0.00753   0.01900   0.02197   0.03078   0.03314
 Alpha virt. eigenvalues --    0.03607   0.04161   0.04378   0.05187   0.05513

 Mulliken atomic charges:
              1
     1  O   -0.534812
     2  C   -0.190692
     3  C    0.315095
     4  O   -0.555018
     5  H    0.345242
     6  C   -0.007380
     7  O   -0.562256
     8  H    0.394358
     9  C   -0.264265
    10  O   -0.521600
    11  H    0.340532
    12  C    0.225556
    13  O   -0.231991
    14  C    0.034840
    15  O   -0.297037
    16  C    0.260708
    17  C    0.113231
    18  O   -0.546089
    19  H    0.389014
    20  C    0.101756
    21  O   -0.520521
    22  H    0.326005
    23  C   -0.268102
    24  O   -0.541923
    25  H    0.356535
    26  C    0.012525
    27  O   -0.228868
    28  C    0.069936
    29  O   -0.492262
    30  H    0.332827
    31  H    0.342248
    32  H    0.155351
    33  H    0.138598
    34  H    0.105457
    35  H    0.111750
    36  H    0.124823
    37  H    0.134544
    38  H    0.123773
    39  H    0.140714
    40  H    0.151458
    41  H    0.124455
    42  H    0.112697
    43  H    0.109494
    44  H    0.134548
    45  H    0.134743
 Sum of Mulliken atomic charges =   0.00000

 Dipole moment (field-independent basis, Debye):
    X=              3.9762    Y=              0.5786    Z=             -1.3534  Tot=              4.2399
 Quadrupole moment (field-independent basis, Debye-Ang):
   XX=           -113.8368   YY=           -138.9529   ZZ=           -141.3871
   XY=             15.8153   XZ=             -1.6869   YZ=              2.4632

  Exact polarizability: 236.719  -0.730 199.299   1.022   1.451 144.918
 Approx polarizability: 278.711   1.413 258.683   0.946   1.808 239.470

 ******    8 imaginary frequencies (negative Signs) ******

                     1                      2                      3
                     A                      A                      A
 Frequencies --  -345.3900              -303.4139              -195.4377
 Red. masses --     1.6840                 1.6427                 1.2177
 Frc consts  --     0.1184                 0.0891                 0.0274
 IR Inten    --     3.3348                 2.1115                84.9942
 Raman Activ --     0.0418                 0.0307                 1.1628

                     4                      5                      6
                     A                      A                      A
 Frequencies --  -154.4046               -84.2831               -51.6419
 Red. masses --     1.3891                 6.7561                 6.1025
 Frc consts  --     0.0195                 0.0283                 0.0096
 IR Inten    --   108.2906                 0.1416                 4.4681
 Raman Activ --     0.7466                 0.0523                 0.0696

                     7                      8                      9
                     A                      A                      A
 Frequencies --   -37.3244               -12.6688                19.2786
 Red. masses --     5.3714                 6.1862                 5.9418
 Frc consts  --     0.0044                 0.0006                 0.0013
 IR Inten    --     5.5309                 4.4321                 4.0203
 Raman Activ --     0.0600                 0.0428                 0.1042

                    10                     11                     12
                     A                      A                      A
 Frequencies --    53.4051                73.2038                93.6327
 Red. masses --     6.3703                 6.1563                 5.9214
 Frc consts  --     0.0107                 0.0194                 0.0306
 IR Inten    --     1.6378                 4.4976                 0.8545
 Raman Activ --     0.0648                 0.2769                 0.1705

                    13                     14                     15
                     A                      A                      A
 Frequencies --   123.4796               152.0395               168.2647
 Red. masses --     5.9901                 5.9976                 6.3950
 Frc consts  --     0.0538                 0.0817                 0.1067
 IR Inten    --     3.8510                 0.5139                 1.0443
 Raman Activ --     0.2757                 0.1460                 0.2120

                    16                     17                     18
                     A                      A                      A
 Frequencies --   188.4646               202.8472               225.1290
 Red. masses --     7.2245                 4.6548                 6.3704
 Frc consts  --     0.1512                 0.1128                 0.1902
 IR Inten    --     0.0846                17.5164                 3.0462
 Raman Activ --     2.6096                 0.1093                 1.6025

                    19                     20                     21
                     A                      A                      A
 Frequencies --   249.7271               279.2125               290.6179
 Red. masses --     4.7462                 4.3104                 5.1360
 Frc consts  --     0.1744                 0.1980                 0.2556
 IR Inten    --     2.5102                 0.8647                 3.8599
 Raman Activ --     0.3442                 0.0471                 1.0302

                    22                     23                     24
                     A                      A                      A
 Frequencies --   302.6573               307.6008               314.7265
 Red. masses --     5.0676                 6.1977                 5.6697
 Frc consts  --     0.2735                 0.3455                 0.3309
 IR Inten    --     2.9425                 2.7646                 2.0352
 Raman Activ --     1.0615                 2.4265                 3.6778

                    25                     26                     27
                     A                      A                      A
 Frequencies --   322.5995               355.1118               361.8761
 Red. masses --     5.4783                 5.5321                 4.5137
 Frc consts  --     0.3359                 0.4110                 0.3483
 IR Inten    --     4.1724                 5.1831                 3.5922
 Raman Activ --     4.9005                 0.1328                 0.1350

                    28                     29                     30
                     A                      A                      A
 Frequencies --   393.1953               407.0500               424.0298
 Red. masses --     5.3246                 5.9153                 6.3128
 Frc consts  --     0.4850                 0.5775                 0.6687
 IR Inten    --    12.5373                 6.1187                 2.8018
 Raman Activ --     6.6029                 4.0498                 3.2945

                    31                     32                     33
                     A                      A                      A
 Frequencies --   426.4689               458.8687               469.4130
 Red. masses --     4.3149                 4.8858                 4.1049
 Frc consts  --     0.4624                 0.6061                 0.5329
 IR Inten    --     3.2357                 4.7347                 9.3306
 Raman Activ --     2.3357                 1.1796                 2.0193

                    34                     35                     36
                     A                      A                      A
 Frequencies --   501.7297               504.3987               547.3341
 Red. masses --     3.4826                 3.9955                 3.4063
 Frc consts  --     0.5165                 0.5989                 0.6012
 IR Inten    --     7.5672                14.1252                26.7323
 Raman Activ --     4.4746                 2.7969                 1.1685

                    37                     38                     39
                     A                      A                      A
 Frequencies --   572.3747               583.6173               608.8890
 Red. masses --     2.8132                 7.0702                 4.5212
 Frc consts  --     0.5430                 1.4189                 0.9876
 IR Inten    --    39.1629                 6.3373                22.1879
 Raman Activ --     0.2257                 0.5435                 1.5239

                    40                     41                     42
                     A                      A                      A
 Frequencies --   612.2849               675.9663               678.2423
 Red. masses --     6.2946                 2.8686                 1.2823
 Frc consts  --     1.3904                 0.7723                 0.3475
 IR Inten    --    14.1057                35.8233                77.3219
 Raman Activ --     0.7924                 0.7138                 1.7269

                    43                     44                     45
                     A                      A                      A
 Frequencies --   698.1416               709.7253               729.3261
 Red. masses --     1.0960                 1.0509                 1.0910
 Frc consts  --     0.3147                 0.3119                 0.3419
 IR Inten    --    95.7967                96.2878                84.1375
 Raman Activ --     1.4831                 1.6816                 1.6600

                    46                     47                     48
                     A                      A                      A
 Frequencies --   766.7349               825.8453               834.6712
 Red. masses --     1.1113                 1.1416                 1.8896
 Frc consts  --     0.3849                 0.4587                 0.7756
 IR Inten    --   101.1308                62.5111                 2.9143
 Raman Activ --     3.3183                 0.4113                 0.8787

                    49                     50                     51
                     A                      A                      A
 Frequencies --   846.5257               895.9807               929.9114
 Red. masses --     1.6147                 6.2524                 6.5486
 Frc consts  --     0.6818                 2.9573                 3.3364
 IR Inten    --    14.0138               182.5886               155.8723
 Raman Activ --     0.2730                 1.6231                 0.8756

                    52                     53                     54
                     A                      A                      A
 Frequencies --   970.5775               972.7245               995.2918
 Red. masses --     5.4180                 6.7118                 5.7321
 Frc consts  --     3.0071                 3.7417                 3.3455
 IR Inten    --    27.7841                12.1838               417.4472
 Raman Activ --     3.3018                 2.5805                 1.2756

                    55                     56                     57
                     A                      A                      A
 Frequencies --   999.1921              1007.7498              1015.0891
 Red. masses --     6.8594                 6.8076                 5.9532
 Frc consts  --     4.0349                 4.0733                 3.6142
 IR Inten    --   218.3899                18.5239               135.9259
 Raman Activ --     1.1724                 4.6751                 1.7938

                    58                     59                     60
                     A                      A                      A
 Frequencies --  1032.3738              1046.7210              1058.4650
 Red. masses --     4.8553                 3.4445                 4.8830
 Frc consts  --     3.0489                 2.2235                 3.2232
 IR Inten    --   237.1517                30.0119               174.5102
 Raman Activ --     2.1683                 3.4642                 2.2447

                    61                     62                     63
                     A                      A                      A
 Frequencies --  1072.8077              1076.3071              1081.7711
 Red. masses --     4.2636                 8.5174                 5.5993
 Frc consts  --     2.8912                 5.8134                 3.8606
 IR Inten    --    76.6820                88.5137                 8.5423
 Raman Activ --    15.0919                 1.3146                 3.0043

                    64                     65                     66
                     A                      A                      A
 Frequencies --  1102.5097              1104.6832              1116.3500
 Red. masses --     3.5840                 2.9855                 2.8763
 Frc consts  --     2.5667                 2.1465                 2.1119
 IR Inten    --    52.1269                37.9620                 9.3883
 Raman Activ --    17.2325                 5.2693                 4.7266

                    67                     68                     69
                     A                      A                      A
 Frequencies --  1124.4095              1133.6548              1145.9218
 Red. masses --     2.4012                 3.8855                 2.6287
 Frc consts  --     1.7887                 2.9421                 2.0338
 IR Inten    --     3.9801                27.7061                36.1133
 Raman Activ --     2.4970                 3.7905                 5.3865

                    70                     71                     72
                     A                      A                      A
 Frequencies --  1147.9929              1158.5667              1163.6131
 Red. masses --     3.0833                 1.9332                 2.0996
 Frc consts  --     2.3941                 1.5289                 1.6750
 IR Inten    --    13.0359                30.8799                48.0932
 Raman Activ --     1.1058                 1.9082                 4.1452

                    73                     74                     75
                     A                      A                      A
 Frequencies --  1169.3473              1198.3278              1201.8826
 Red. masses --     1.8926                 1.9101                 1.3826
 Frc consts  --     1.5247                 1.6161                 1.1767
 IR Inten    --     7.4714                 9.6507                 7.1944
 Raman Activ --     2.6673                 3.7388                 1.0542

                    76                     77                     78
                     A                      A                      A
 Frequencies --  1219.2696              1233.8158              1238.0699
 Red. masses --     1.4069                 1.1999                 1.2845
 Frc consts  --     1.2323                 1.0762                 1.1601
 IR Inten    --    10.6109                 5.0479                 6.9717
 Raman Activ --     2.2075                 1.6492                 2.0832

                    79                     80                     81
                     A                      A                      A
 Frequencies --  1248.2495              1252.1638              1267.4637
 Red. masses --     1.2830                 1.2012                 1.3521
 Frc consts  --     1.1778                 1.1096                 1.2797
 IR Inten    --     5.8727                 2.0536                20.0418
 Raman Activ --     2.9369                 1.5195                 0.7886

                    82                     83                     84
                     A                      A                      A
 Frequencies --  1282.0257              1287.1607              1292.0794
 Red. masses --     1.3192                 1.3059                 1.2858
 Frc consts  --     1.2775                 1.2747                 1.2648
 IR Inten    --    30.2829                 7.3154                18.8091
 Raman Activ --     0.8828                 4.0389                 3.0501

                    85                     86                     87
                     A                      A                      A
 Frequencies --  1305.7964              1312.2270              1317.5936
 Red. masses --     1.1961                 1.3179                 1.3217
 Frc consts  --     1.2016                 1.3371                 1.3519
 IR Inten    --    16.5919                 0.8658                 6.0100
 Raman Activ --     5.5508                 3.2091                 2.2487

                    88                     89                     90
                     A                      A                      A
 Frequencies --  1320.6593              1327.9882              1335.4359
 Red. masses --     1.2460                 1.2343                 1.2242
 Frc consts  --     1.2804                 1.2825                 1.2863
 IR Inten    --    42.7852                 6.6358                 7.8570
 Raman Activ --     5.0503                 5.7835                10.0971

                    91                     92                     93
                     A                      A                      A
 Frequencies --  1352.4373              1360.9084              1365.8288
 Red. masses --     1.1320                 1.2000                 1.3823
 Frc consts  --     1.2199                 1.3094                 1.5194
 IR Inten    --    35.2238                28.1321                 6.6247
 Raman Activ --     1.9427                 3.8218                10.6285

                    94                     95                     96
                     A                      A                      A
 Frequencies --  1376.6143              1376.7783              1382.4800
 Red. masses --     1.3261                 1.2107                 1.4888
 Frc consts  --     1.4806                 1.3521                 1.6765
 IR Inten    --    10.5301                27.0960                 9.2442
 Raman Activ --     1.1225                 3.8966                 6.4625

                    97                     98                     99
                     A                      A                      A
 Frequencies --  1388.5250              1395.7651              1417.4879
 Red. masses --     1.5497                 1.1985                 1.2394
 Frc consts  --     1.7604                 1.3756                 1.4673
 IR Inten    --    15.0642                24.0949                 1.4419
 Raman Activ --     4.5985                 1.8147                 4.1245

                   100                    101                    102
                     A                      A                      A
 Frequencies --  1436.6521              1461.8813              1466.1979
 Red. masses --     1.4119                 1.0767                 1.2086
 Frc consts  --     1.7169                 1.3558                 1.5308
 IR Inten    --    30.2456                 8.7629                21.4091
 Raman Activ --     1.9693                 4.5851                 4.6950

                   103                    104                    105
                     A                      A                      A
 Frequencies --  1474.8496              1476.7386              1477.7104
 Red. masses --     1.3145                 1.2060                 1.3137
 Frc consts  --     1.6847                 1.5495                 1.6901
 IR Inten    --    49.8943                 2.4633                10.5958
 Raman Activ --     0.6677                 1.3648                 1.0342

                   106                    107                    108
                     A                      A                      A
 Frequencies --  1500.6832              1517.8111              3246.2203
 Red. masses --     1.2825                 1.2905                 1.0781
 Frc consts  --     1.7017                 1.7516                 6.6934
 IR Inten    --    50.1670                65.9368                 2.7823
 Raman Activ --     1.3519                 1.8326               179.9596

                   109                    110                    111
                     A                      A                      A
 Frequencies --  3250.8362              3253.8165              3256.1439
 Red. masses --     1.0654                 1.0777                 1.0746
 Frc consts  --     6.6339                 6.7227                 6.7127
 IR Inten    --    11.3307                28.8792                10.4546
 Raman Activ --    36.1683                55.4275                37.4788

                   112                    113                    114
                     A                      A                      A
 Frequencies --  3257.6873              3268.4313              3273.2822
 Red. masses --     1.0613                 1.0820                 1.0823
 Frc consts  --     6.6358                 6.8102                 6.8322
 IR Inten    --    49.3606                31.7788                 1.1189
 Raman Activ --   125.2763                58.2990                31.6326

                   115                    116                    117
                     A                      A                      A
 Frequencies --  3275.9489              3281.8631              3285.2618
 Red. masses --     1.0836                 1.0838                 1.0860
 Frc consts  --     6.8516                 6.8779                 6.9061
 IR Inten    --    15.1915                11.2314                 8.5855
 Raman Activ --    54.3452               167.6159                12.5063

                   118                    119                    120
                     A                      A                      A
 Frequencies --  3288.4102              3297.3323              3302.1800
 Red. masses --     1.0852                 1.0869                 1.1025
 Frc consts  --     6.9141                 6.9623                 7.0831
 IR Inten    --    77.1818                89.1269                37.5314
 Raman Activ --    10.8168                 8.9585                20.1210

                   121                    122                    123
                     A                      A                      A
 Frequencies --  3309.3618              3311.4584              3316.5481
 Red. masses --     1.0775                 1.0939                 1.0677
 Frc consts  --     6.9527                 7.0678                 6.9194
 IR Inten    --    38.4637               112.7838               912.6305
 Raman Activ --   281.1943                47.7456                34.9345

                   124                    125                    126
                     A                      A                      A
 Frequencies --  3360.9247              3367.6501              3370.8573
 Red. masses --     1.0677                 1.0663                 1.0654
 Frc consts  --     7.1059                 7.1248                 7.1327
 IR Inten    --    59.0523                52.5471                21.5976
 Raman Activ --   149.5270               107.0448               116.6433

                   127                    128                    129
                     A                      A                      A
 Frequencies --  3375.4474              3885.8654              3890.5977
 Red. masses --     1.0686                 1.0678                 1.0675
 Frc consts  --     7.1738                 9.5001                 9.5207
 IR Inten    --    57.8522                82.4239                78.4449
 Raman Activ --   153.7390                79.7976               126.7891

 - Thermochemistry -
 -------------------
 Temperature   298.150 Kelvin.  Pressure   1.00000 Atm.
 Atom     1 has atomic number  8 and mass  15.99491

 Molecular mass:   342.11621 amu.
 Principal axes and moments of inertia in atomic units:
                           1         2         3
     Eigenvalues --  4564.24956********************
           X            0.99997   0.00748  -0.00020
           Y           -0.00748   0.99997   0.00342
           Z            0.00023  -0.00342   0.99999
 This molecule is an asymmetric top.
 Rotational symmetry number  1.
 Warning -- assumption of classical behavior for rotation
           may cause significant error
 Rotational temperatures (Kelvin)      0.01898     0.00683     0.00515
 Rotational constants (GHZ):           0.39541     0.14240     0.10731
    8 imaginary frequencies ignored.
 Zero-point vibrational energy     971824.7 (Joules/Mol)
                                  232.27168 (Kcal/Mol)
 Warning -- explicit consideration of  32 degrees of freedom as
           vibrations may cause significant error
 Vibrational temperatures:     27.74    76.84   105.32   134.72   177.66
          (Kelvin)            218.75   242.10   271.16   291.85   323.91
                              359.30   401.72   418.13   435.46   442.57
                              452.82   464.15   510.93   520.66   565.72
                              585.65   610.08   613.59   660.21   675.38
                              721.88   725.72   787.49   823.52   839.69
                              876.05   880.94   972.56   975.84  1004.47
                             1021.14  1049.34  1103.16  1188.21  1200.90
                             1217.96  1289.11  1337.93  1396.44  1399.53
                             1432.00  1437.61  1449.93  1460.49  1485.35
                             1506.00  1522.89  1543.53  1548.56  1556.43
                             1586.26  1589.39  1606.18  1617.77  1631.07
                             1648.72  1651.70  1666.92  1674.18  1682.43
                             1724.12  1729.24  1754.25  1775.18  1781.30
                             1795.95  1801.58  1823.60  1844.55  1851.93
                             1859.01  1878.75  1888.00  1895.72  1900.13
                             1910.68  1921.39  1945.85  1958.04  1965.12
                             1980.64  1980.87  1989.08  1997.78  2008.19
                             2039.45  2067.02  2103.32  2109.53  2121.98
                             2124.69  2126.09  2159.15  2183.79  4670.58
                             4677.22  4681.51  4684.86  4687.08  4702.54
                             4709.52  4713.35  4721.86  4726.75  4731.28
                             4744.12  4751.09  4761.43  4764.44  4771.77
                             4835.61  4845.29  4849.91  4856.51  5590.89
                             5597.70

 Zero-point correction=                           0.370148 (Hartree/Particle)
 Thermal correction to Energy=                    0.388435
 Thermal correction to Enthalpy=                  0.389379
 Thermal correction to Gibbs Free Energy=         0.323664
 Sum of electronic and zero-point Energies=          -1297.589673
 Sum of electronic and thermal Energies=             -1297.571387
 Sum of electronic and thermal Enthalpies=           -1297.570443
 Sum of electronic and thermal Free Energies=        -1297.636158

                     E (Thermal)             CV                S
                      KCal/Mol        Cal/Mol-Kelvin    Cal/Mol-Kelvin
 Total                  243.746             74.950            138.308
 Electronic               0.000              0.000              0.000
 Translational            0.889              2.981             43.384
 Rotational               0.889              2.981             35.230
 Vibrational            241.969             68.988             59.694
 Vibration     1          0.593              1.986              6.707
 Vibration     2          0.596              1.976              4.687
 Vibration     3          0.599              1.967              4.065
 Vibration     4          0.603              1.954              3.583
 Vibration     5          0.610              1.929              3.045
 Vibration     6          0.619              1.900              2.647
 Vibration     7          0.625              1.882              2.455
 Vibration     8          0.633              1.856              2.243
 Vibration     9          0.639              1.836              2.107
 Vibration    10          0.650              1.803              1.917
 Vibration    11          0.663              1.763              1.733
 Vibration    12          0.680              1.712              1.538
 Vibration    13          0.687              1.691              1.470
 Vibration    14          0.694              1.669              1.402
 Vibration    15          0.697              1.659              1.375
 Vibration    16          0.702              1.646              1.337
 Vibration    17          0.708              1.630              1.297
 Vibration    18          0.731              1.565              1.143
 Vibration    19          0.736              1.551              1.114
 Vibration    20          0.760              1.485              0.988
 Vibration    21          0.772              1.455              0.937
 Vibration    22          0.786              1.418              0.878
 Vibration    23          0.788              1.413              0.870
 Vibration    24          0.817              1.341              0.769
 Vibration    25          0.827              1.318              0.739
 Vibration    26          0.857              1.246              0.654
 Vibration    27          0.860              1.240              0.647
 Vibration    28          0.903              1.146              0.550
 Vibration    29          0.929              1.091              0.500
 Vibration    30          0.940              1.067              0.479
 Vibration    31          0.968              1.013              0.435
 Vibration    32          0.972              1.006              0.429

 Normal termination of Gaussian 09 at Fri Mar 25 22:46:04 2016.
