 Gaussian 09, Revision B.01,
 Gaussian 09:  EM64L-G09RevB.01 12-Aug-2010

 -------------------------------------------------
 # freq=raman b3lyp/6-31+g(2d,p) geom=connectivity
 -------------------------------------------------

 -----------------
 400 7126/7126.com
 -----------------
 Symbolic Z-matrix:
 Charge =  0 Multiplicity = 1

                         Standard orientation:
 ---------------------------------------------------------------------
 Center     Atomic      Atomic             Coordinates (Angstroms)
 Number     Number       Type             X           Y           Z
 ---------------------------------------------------------------------
      1          8           0        5.017740   -0.489524   -0.357152
      2          6           0        3.739873   -0.076863    0.148471
      3          6           0        3.275295    1.270211   -0.382996
      4          8           0        4.339827    2.231566   -0.362900
      5          1           0        5.253420    1.825806   -0.354290
      6          6           0        1.928633    1.659370    0.203903
      7          8           0        1.462412    2.796881   -0.536648
      8          1           0        0.682981    3.195522   -0.053696
      9          6           0        2.986881   -2.545423    0.361307
     10          8           0        4.170619   -3.281591    0.020909
     11          1           0        4.086672   -4.267608    0.169479
     12          6           0        2.718612   -1.152020   -0.184914
     13          8           0        1.407757   -0.773037    0.259093
     14          6           0        0.924364    0.544183   -0.039122
     15          8           0       -0.312038    0.406429    0.676180
     16          6           0       -1.552098    0.244664   -0.027896
     17          6           0       -2.014589   -1.161900    0.313901
     18          8           0       -1.003937   -2.148138    0.060343
     19          1           0       -0.121785   -1.678835    0.028166
     20          6           0       -3.340575   -1.554824   -0.317943
     21          8           0       -3.737925   -2.872654    0.085309
     22          1           0       -4.545471   -3.102091   -0.457193
     23          6           0       -2.425615    2.669190    0.104542
     24          8           0       -1.361426    3.469731    0.637416
     25          1           0       -1.578237    4.409056    0.370756
     26          6           0       -2.661616    1.195314    0.392808
     27          8           0       -3.941972    0.879177   -0.172143
     28          6           0       -4.370180   -0.480461   -0.005890
     29          8           0       -5.527355   -0.672408   -0.832527
     30          1           0       -6.319632   -0.604964   -0.294615
     31          1           0        5.652955   -0.516496    0.362135
     32          1           0        2.153889   -3.153327    0.075865
     33          1           0        2.970209   -2.466030    1.428227
     34          1           0        2.683390   -1.232074   -1.251333
     35          1           0        3.812113   -0.005481    1.213641
     36          1           0        3.079556    1.105897   -1.422028
     37          1           0        2.011406    1.885166    1.246527
     38          1           0        0.683666    0.569280   -1.081396
     39          1           0       -3.331048    3.168083    0.380579
     40          1           0       -2.344015    2.747953   -0.959431
     41          1           0       -2.758638    1.099858    1.454117
     42          1           0       -1.384679    0.325213   -1.081643
     43          1           0       -2.177669   -1.169444    1.371373
     44          1           0       -3.201881   -1.570790   -1.378796
     45          1           0       -4.670733   -0.604778    1.013479
 ---------------------------------------------------------------------

 SCF Done:  E(RB3LYP) =  -1297.97008136     A.U. after   13 cycles

 The electronic state is 1-A.
 Alpha  occ. eigenvalues --  -19.18469 -19.18278 -19.18210 -19.18090 -19.17964
 Alpha  occ. eigenvalues --  -19.17224 -19.16193 -19.15744 -19.15724 -19.15481
 Alpha  occ. eigenvalues --  -19.12987 -10.31171 -10.30432 -10.26394 -10.26073
 Alpha  occ. eigenvalues --  -10.26014 -10.25525 -10.25470 -10.25046 -10.24993
 Alpha  occ. eigenvalues --  -10.24588 -10.23966 -10.23698  -1.10407  -1.08888
 Alpha  occ. eigenvalues --   -1.05508  -1.04956  -1.03726  -1.03426  -1.03189
 Alpha  occ. eigenvalues --   -1.02528  -1.01941  -1.01180  -0.99720  -0.82483
 Alpha  occ. eigenvalues --   -0.80982  -0.79379  -0.78759  -0.71952  -0.70378
 Alpha  occ. eigenvalues --   -0.67588  -0.65155  -0.63319  -0.62728  -0.61301
 Alpha  occ. eigenvalues --   -0.60264  -0.56156  -0.55760  -0.55092  -0.55058
 Alpha  occ. eigenvalues --   -0.53732  -0.53686  -0.53216  -0.51765  -0.51080
 Alpha  occ. eigenvalues --   -0.50704  -0.50543  -0.49852  -0.48947  -0.46578
 Alpha  occ. eigenvalues --   -0.46461  -0.45254  -0.44504  -0.43992  -0.42955
 Alpha  occ. eigenvalues --   -0.42756  -0.42247  -0.41380  -0.40341  -0.38917
 Alpha  occ. eigenvalues --   -0.38494  -0.37757  -0.36838  -0.35903  -0.35638
 Alpha  occ. eigenvalues --   -0.35085  -0.34894  -0.34522  -0.34157  -0.33748
 Alpha  occ. eigenvalues --   -0.32998  -0.30763  -0.30633  -0.30536  -0.29994
 Alpha  occ. eigenvalues --   -0.29040  -0.28767  -0.28196  -0.28052  -0.27458
 Alpha  occ. eigenvalues --   -0.26142
 Alpha virt. eigenvalues --   -0.02469  -0.02021  -0.01431  -0.00271   0.00397
 Alpha virt. eigenvalues --    0.01116   0.01608   0.02257   0.02863   0.03053
 Alpha virt. eigenvalues --    0.03705   0.04038   0.04607   0.05419   0.05824

 Mulliken atomic charges:
              1
     1  O   -0.528219
     2  C   -0.172124
     3  C    0.227085
     4  O   -0.575627
     5  H    0.346154
     6  C   -0.037692
     7  O   -0.524352
     8  H    0.371619
     9  C   -0.224867
    10  O   -0.547767
    11  H    0.345270
    12  C    0.181853
    13  O   -0.218861
    14  C    0.171993
    15  O   -0.215675
    16  C    0.225088
    17  C    0.302593
    18  O   -0.595880
    19  H    0.398921
    20  C    0.027348
    21  O   -0.522309
    22  H    0.336141
    23  C   -0.331739
    24  O   -0.554493
    25  H    0.348021
    26  C   -0.107883
    27  O   -0.245531
    28  C    0.209612
    29  O   -0.528251
    30  H    0.331018
    31  H    0.342283
    32  H    0.149606
    33  H    0.139000
    34  H    0.109317
    35  H    0.113797
    36  H    0.112646
    37  H    0.133309
    38  H    0.118455
    39  H    0.145503
    40  H    0.149946
    41  H    0.119291
    42  H    0.115867
    43  H    0.113766
    44  H    0.125645
    45  H    0.120124
 Sum of Mulliken atomic charges =   0.00000

 Dipole moment (field-independent basis, Debye):
    X=             -1.9391    Y=              1.0836    Z=              1.9947  Tot=              2.9855
 Quadrupole moment (field-independent basis, Debye-Ang):
   XX=           -117.2325   YY=           -135.5326   ZZ=           -140.6471
   XY=            -14.1509   XZ=              6.0488   YZ=              2.4452

  Exact polarizability: 235.182   1.866 200.606   1.127  -0.456 144.420
 Approx polarizability: 276.469   0.991 260.146   1.183  -1.390 239.116

 ******    7 imaginary frequencies (negative Signs) ******

                     1                      2                      3
                     A                      A                      A
 Frequencies --  -327.9168              -305.2460              -198.3180
 Red. masses --     1.7017                 1.7288                 1.2463
 Frc consts  --     0.1078                 0.0949                 0.0289
 IR Inten    --     3.1774                 5.6880               100.8289
 Raman Activ --     0.0407                 0.0659                 0.8662

                     4                      5                      6
                     A                      A                      A
 Frequencies --   -74.3434               -63.0092               -40.7473
 Red. masses --     5.5276                 3.0043                 3.3534
 Frc consts  --     0.0180                 0.0070                 0.0033
 IR Inten    --     3.3690                26.3998                19.9359
 Raman Activ --     0.0416                 0.2227                 0.1825

                     7                      8                      9
                     A                      A                      A
 Frequencies --   -31.6914                36.5928                61.8184
 Red. masses --     3.8950                 6.2013                 6.4389
 Frc consts  --     0.0023                 0.0049                 0.0145
 IR Inten    --     7.2227                 3.8065                 0.9799
 Raman Activ --     0.1575                 0.0622                 0.2554

                    10                     11                     12
                     A                      A                      A
 Frequencies --    78.1946                82.4893               109.5726
 Red. masses --     2.7857                 7.0146                 5.1331
 Frc consts  --     0.0100                 0.0281                 0.0363
 IR Inten    --    25.3451                 4.1948                12.5757
 Raman Activ --     0.2955                 0.0988                 0.1239

                    13                     14                     15
                     A                      A                      A
 Frequencies --   120.7298               150.8423               169.1430
 Red. masses --     5.9459                 6.1672                 6.3693
 Frc consts  --     0.0511                 0.0827                 0.1074
 IR Inten    --     2.3582                 2.4160                 1.7414
 Raman Activ --     0.4582                 0.1190                 2.0441

                    16                     17                     18
                     A                      A                      A
 Frequencies --   174.7684               229.7053               241.2829
 Red. masses --     7.0398                 6.0466                 4.3314
 Frc consts  --     0.1267                 0.1880                 0.1486
 IR Inten    --     0.3484                 2.0258                16.4698
 Raman Activ --     0.4205                 0.9619                 0.3735

                    19                     20                     21
                     A                      A                      A
 Frequencies --   274.4858               287.2254               298.4253
 Red. masses --     5.0629                 6.4398                 4.6494
 Frc consts  --     0.2247                 0.3130                 0.2440
 IR Inten    --     0.3399                 3.3169                 4.7076
 Raman Activ --     0.2105                 1.0687                 0.1873

                    22                     23                     24
                     A                      A                      A
 Frequencies --   304.3106               312.8494               319.7470
 Red. masses --     6.0836                 4.3621                 4.6365
 Frc consts  --     0.3319                 0.2515                 0.2793
 IR Inten    --     4.1073                 5.0294                 3.7573
 Raman Activ --     2.8613                 0.2779                 1.1780

                    25                     26                     27
                     A                      A                      A
 Frequencies --   324.4833               355.2355               368.6588
 Red. masses --     6.1500                 5.4683                 8.6513
 Frc consts  --     0.3815                 0.4066                 0.6928
 IR Inten    --     2.7946                 8.2368                 0.9935
 Raman Activ --     7.9066                 0.0391                 3.3249

                    28                     29                     30
                     A                      A                      A
 Frequencies --   380.7589               410.6741               424.5890
 Red. masses --     3.4794                 7.0548                 5.9084
 Frc consts  --     0.2972                 0.7010                 0.6276
 IR Inten    --    13.5942                 2.8642                 0.6972
 Raman Activ --     1.7351                 4.0657                 2.8058

                    31                     32                     33
                     A                      A                      A
 Frequencies --   430.5833               461.5822               469.8030
 Red. masses --     5.5077                 4.4442                 3.8292
 Frc consts  --     0.6016                 0.5579                 0.4979
 IR Inten    --     1.3013                 2.3089                14.8892
 Raman Activ --     1.8497                 2.6164                 2.9632

                    34                     35                     36
                     A                      A                      A
 Frequencies --   496.3240               516.9175               558.3515
 Red. masses --     4.3361                 3.3887                 3.0512
 Frc consts  --     0.6293                 0.5335                 0.5604
 IR Inten    --     6.3412                12.2053                31.8567
 Raman Activ --     2.3579                 3.3723                 0.5429

                    37                     38                     39
                     A                      A                      A
 Frequencies --   571.5698               589.1137               603.4662
 Red. masses --     4.1176                 4.2232                 4.9626
 Frc consts  --     0.7926                 0.8636                 1.0648
 IR Inten    --    10.1061                13.3996                30.8765
 Raman Activ --     0.6440                 0.7254                 1.9011

                    40                     41                     42
                     A                      A                      A
 Frequencies --   620.7727               651.1581               653.2607
 Red. masses --     3.2142                 1.0719                 1.2003
 Frc consts  --     0.7298                 0.2678                 0.3018
 IR Inten    --    17.1875                69.3274               111.0661
 Raman Activ --     1.1982                 1.9256                 1.8549

                    43                     44                     45
                     A                      A                      A
 Frequencies --   697.2095               734.5766               736.6350
 Red. masses --     5.6021                 1.0795                 1.0876
 Frc consts  --     1.6044                 0.3432                 0.3477
 IR Inten    --    10.4565                49.5718               158.1713
 Raman Activ --     1.5456                 2.1271                 1.1641

                    46                     47                     48
                     A                      A                      A
 Frequencies --   765.1658               785.5750               841.7247
 Red. masses --     1.0723                 1.0773                 1.8060
 Frc consts  --     0.3699                 0.3917                 0.7539
 IR Inten    --    45.5531               125.1984                 2.0625
 Raman Activ --     0.2240                 2.3164                 0.6007

                    49                     50                     51
                     A                      A                      A
 Frequencies --   851.8226               895.9959               949.2519
 Red. masses --     1.8031                 6.7510                 6.5290
 Frc consts  --     0.7708                 3.1932                 3.4662
 IR Inten    --     9.0308               129.0006               113.4500
 Raman Activ --     0.6985                 1.6827                 0.4713

                    52                     53                     54
                     A                      A                      A
 Frequencies --   975.5175               976.7998               984.5584
 Red. masses --     7.5599                 6.7534                 4.5676
 Frc consts  --     4.2387                 3.7965                 2.6087
 IR Inten    --    46.0487                54.2847               161.6525
 Raman Activ --     1.2366                 4.4298                 1.0964

                    55                     56                     57
                     A                      A                      A
 Frequencies --   990.8040              1000.8023              1017.4771
 Red. masses --     6.0073                 6.5686                 6.4949
 Frc consts  --     3.4746                 3.8763                 3.9616
 IR Inten    --   365.3590                71.1975               133.3066
 Raman Activ --     0.3322                 3.7237                 2.6390

                    58                     59                     60
                     A                      A                      A
 Frequencies --  1029.7133              1049.2684              1055.5054
 Red. masses --     5.1694                 3.5919                 4.3965
 Frc consts  --     3.2294                 2.3299                 2.8859
 IR Inten    --   316.9658                85.0629                 1.9852
 Raman Activ --     2.3045                 7.3890                 6.6948

                    61                     62                     63
                     A                      A                      A
 Frequencies --  1064.8751              1071.8071              1081.2178
 Red. masses --     5.8255                 3.7532                 4.3091
 Frc consts  --     3.8921                 2.5403                 2.9680
 IR Inten    --   138.2884                31.0343                47.4444
 Raman Activ --     5.5122                13.4394                 5.2553

                    64                     65                     66
                     A                      A                      A
 Frequencies --  1098.0158              1108.7160              1115.5027
 Red. masses --     3.1426                 2.4642                 2.6602
 Frc consts  --     2.2324                 1.7847                 1.9503
 IR Inten    --    43.6692                38.9694                35.6101
 Raman Activ --     5.2711                 6.8138                11.7803

                    67                     68                     69
                     A                      A                      A
 Frequencies --  1124.8396              1126.7704              1135.0031
 Red. masses --     2.8804                 2.9202                 2.9029
 Frc consts  --     2.1473                 2.1844                 2.2033
 IR Inten    --    15.4922                22.3867                63.0595
 Raman Activ --     2.6829                 1.9485                10.3640

                    70                     71                     72
                     A                      A                      A
 Frequencies --  1153.7025              1155.8401              1169.7510
 Red. masses --     2.6742                 2.3992                 1.8004
 Frc consts  --     2.0972                 1.8884                 1.4514
 IR Inten    --     8.4745                 3.0117                 7.7933
 Raman Activ --     4.2715                 1.7659                 2.9163

                    73                     74                     75
                     A                      A                      A
 Frequencies --  1170.3584              1181.0166              1183.8971
 Red. masses --     1.8935                 1.7360                 2.1079
 Frc consts  --     1.5281                 1.4266                 1.7407
 IR Inten    --    29.7895                 3.6248                15.0066
 Raman Activ --     1.5920                 0.9322                 2.1252

                    76                     77                     78
                     A                      A                      A
 Frequencies --  1210.9812              1222.4348              1240.3468
 Red. masses --     1.3178                 1.4440                 1.2247
 Frc consts  --     1.1386                 1.2713                 1.1101
 IR Inten    --     8.1221                 5.3857                 4.5046
 Raman Activ --     1.5851                 1.7704                 1.1031

                    79                     80                     81
                     A                      A                      A
 Frequencies --  1249.5639              1261.0742              1265.8067
 Red. masses --     1.4036                 1.2626                 1.2200
 Frc consts  --     1.2913                 1.1830                 1.1518
 IR Inten    --     9.1108                45.3115                29.2591
 Raman Activ --     0.9837                 1.8650                 5.0499

                    82                     83                     84
                     A                      A                      A
 Frequencies --  1274.7140              1285.9837              1290.1541
 Red. masses --     1.1730                 1.2782                 1.1686
 Frc consts  --     1.1230                 1.2454                 1.1460
 IR Inten    --     3.9444                 9.1095                25.6680
 Raman Activ --     1.6806                 0.9241                 5.7454

                    85                     86                     87
                     A                      A                      A
 Frequencies --  1298.9098              1307.0909              1317.2162
 Red. masses --     1.3130                 1.2488                 1.2798
 Frc consts  --     1.3052                 1.2570                 1.3083
 IR Inten    --    40.8669                12.6809                29.4545
 Raman Activ --     2.2840                 0.9174                 1.8587

                    88                     89                     90
                     A                      A                      A
 Frequencies --  1318.0240              1329.0147              1334.5833
 Red. masses --     1.3744                 1.1527                 1.1461
 Frc consts  --     1.4068                 1.1995                 1.2027
 IR Inten    --     2.2458                 2.7595                34.8296
 Raman Activ --     4.0701                14.3828                 3.0956

                    91                     92                     93
                     A                      A                      A
 Frequencies --  1335.9402              1349.3240              1369.8386
 Red. masses --     1.3045                 1.1683                 1.1065
 Frc consts  --     1.3717                 1.2532                 1.2233
 IR Inten    --    14.9853                18.9764                35.1321
 Raman Activ --     7.8762                 2.3728                 1.9741

                    94                     95                     96
                     A                      A                      A
 Frequencies --  1373.9035              1381.2015              1384.7424
 Red. masses --     1.2634                 1.5611                 1.2758
 Frc consts  --     1.4051                 1.7546                 1.4414
 IR Inten    --    11.3845                29.2051                 5.3917
 Raman Activ --     4.2667                 5.5145                 2.7172

                    97                     98                     99
                     A                      A                      A
 Frequencies --  1394.0013              1399.2482              1403.4991
 Red. masses --     1.4373                 1.5300                 1.5761
 Frc consts  --     1.6455                 1.7650                 1.8292
 IR Inten    --    14.6128                 3.6562                 4.2334
 Raman Activ --     3.2182                 5.3447                 6.2900

                   100                    101                    102
                     A                      A                      A
 Frequencies --  1416.8095              1443.0410              1451.1702
 Red. masses --     1.3351                 1.3696                 1.3652
 Frc consts  --     1.5791                 1.6803                 1.6939
 IR Inten    --    14.8756                15.1388                28.7229
 Raman Activ --     5.6116                 1.8557                 1.7781

                   103                    104                    105
                     A                      A                      A
 Frequencies --  1468.2904              1471.1469              1473.4245
 Red. masses --     1.2272                 1.1037                 1.1288
 Frc consts  --     1.5588                 1.4074                 1.4439
 IR Inten    --    33.8587                 3.0141                 1.5176
 Raman Activ --     2.7339                 3.2478                 3.0724

                   106                    107                    108
                     A                      A                      A
 Frequencies --  1496.6046              1523.4491              3254.3112
 Red. masses --     1.3302                 1.2361                 1.0638
 Frc consts  --     1.7554                 1.6903                 6.6376
 IR Inten    --    15.9286                59.9333                 8.7386
 Raman Activ --     1.0688                 2.0280                68.5552

                   109                    110                    111
                     A                      A                      A
 Frequencies --  3255.2626              3258.8152              3259.9319
 Red. masses --     1.0615                 1.0753                 1.0786
 Frc consts  --     6.6273                 6.7283                 6.7537
 IR Inten    --    11.5271               158.7407                 7.4859
 Raman Activ --    33.9426               156.9093                62.3703

                   112                    113                    114
                     A                      A                      A
 Frequencies --  3265.1677              3266.5590              3270.8581
 Red. masses --     1.0798                 1.0807                 1.0825
 Frc consts  --     6.7826                 6.7945                 6.8232
 IR Inten    --    37.6853                 3.5716                18.0191
 Raman Activ --    30.7659                94.7334               162.1387

                   115                    116                    117
                     A                      A                      A
 Frequencies --  3276.2922              3282.5606              3284.7104
 Red. masses --     1.0836                 1.0844                 1.0849
 Frc consts  --     6.8533                 6.8845                 6.8967
 IR Inten    --    17.1362                93.3957                 4.2502
 Raman Activ --    96.4594                26.4293                14.8302

                   118                    119                    120
                     A                      A                      A
 Frequencies --  3287.0817              3295.9436              3300.8591
 Red. masses --     1.0749                 1.0858                 1.0874
 Frc consts  --     6.8427                 6.9493                 6.9806
 IR Inten    --   429.4105               101.1249                50.4406
 Raman Activ --   127.9968                61.2140                17.9532

                   121                    122                    123
                     A                      A                      A
 Frequencies --  3305.7126              3309.5101              3339.9975
 Red. masses --     1.1021                 1.1037                 1.0679
 Frc consts  --     7.0958                 7.1227                 7.0192
 IR Inten    --    61.7313                68.8323               309.0679
 Raman Activ --    45.0038                34.4933               171.5775

                   124                    125                    126
                     A                      A                      A
 Frequencies --  3359.6846              3367.6749              3369.8442
 Red. masses --     1.0686                 1.0665                 1.0664
 Frc consts  --     7.1066                 7.1265                 7.1351
 IR Inten    --    55.3779                59.2061                56.9930
 Raman Activ --   175.9802               112.7350               114.2531

                   127                    128                    129
                     A                      A                      A
 Frequencies --  3380.1715              3888.5874              3888.6923
 Red. masses --     1.0659                 1.0676                 1.0676
 Frc consts  --     7.1751                 9.5110                 9.5119
 IR Inten    --    40.5327               134.4355                20.4164
 Raman Activ --   134.9354                27.4957               182.8046

 - Thermochemistry -
 -------------------
 Temperature   298.150 Kelvin.  Pressure   1.00000 Atm.
 Atom     1 has atomic number  8 and mass  15.99491

 Molecular mass:   342.11621 amu.
 Principal axes and moments of inertia in atomic units:
                           1         2         3
     Eigenvalues --  4595.78908********************
           X            0.99997  -0.00771   0.00071
           Y            0.00771   0.99997  -0.00073
           Z           -0.00071   0.00074   1.00000
 This molecule is an asymmetric top.
 Rotational symmetry number  1.
 Warning -- assumption of classical behavior for rotation
           may cause significant error
 Rotational temperatures (Kelvin)      0.01885     0.00689     0.00519
 Rotational constants (GHZ):           0.39269     0.14366     0.10807
    7 imaginary frequencies ignored.
 Zero-point vibrational energy     972139.1 (Joules/Mol)
                                  232.34682 (Kcal/Mol)
 Warning -- explicit consideration of  33 degrees of freedom as
           vibrations may cause significant error
 Vibrational temperatures:     52.65    88.94   112.50   118.68   157.65
          (Kelvin)            173.70   217.03   243.36   251.45   330.49
                              347.15   394.92   413.25   429.37   437.83
                              450.12   460.04   466.86   511.10   530.42
                              547.83   590.87   610.89   619.51   664.11
                              675.94   714.10   743.73   803.34   822.36
                              847.60   868.25   893.15   936.87   939.90
                             1003.13  1056.89  1059.85  1100.90  1130.27
                             1211.05  1225.58  1289.14  1365.76  1403.55
                             1405.40  1416.56  1425.54  1439.93  1463.92
                             1481.53  1509.66  1518.63  1532.12  1542.09
                             1555.63  1579.80  1595.19  1604.96  1618.39
                             1621.17  1633.01  1659.92  1662.99  1683.01
                             1683.88  1699.22  1703.36  1742.33  1758.81
                             1784.58  1797.84  1814.40  1821.21  1834.03
                             1850.24  1856.24  1868.84  1880.61  1895.18
                             1896.34  1912.15  1920.17  1922.12  1941.37
                             1970.89  1976.74  1987.24  1992.33  2005.65
                             2013.20  2019.32  2038.47  2076.21  2087.91
                             2112.54  2116.65  2119.93  2153.28  2191.90
                             4682.22  4683.59  4688.70  4690.31  4697.84
                             4699.84  4706.03  4713.85  4722.87  4725.96
                             4729.37  4742.12  4749.19  4756.18  4761.64
                             4805.51  4833.83  4845.33  4848.45  4863.31
                             5594.80  5594.95

 Zero-point correction=                           0.370268 (Hartree/Particle)
 Thermal correction to Energy=                    0.389127
 Thermal correction to Enthalpy=                  0.390071
 Thermal correction to Gibbs Free Energy=         0.323718
 Sum of electronic and zero-point Energies=          -1297.599813
 Sum of electronic and thermal Energies=             -1297.580954
 Sum of electronic and thermal Enthalpies=           -1297.580010
 Sum of electronic and thermal Free Energies=        -1297.646363

                     E (Thermal)             CV                S
                      KCal/Mol        Cal/Mol-Kelvin    Cal/Mol-Kelvin
 Total                  244.181             76.854            139.652
 Electronic               0.000              0.000              0.000
 Translational            0.889              2.981             43.384
 Rotational               0.889              2.981             35.221
 Vibrational            242.403             70.893             61.046
 Vibration     1          0.594              1.982              5.436
 Vibration     2          0.597              1.973              4.398
 Vibration     3          0.599              1.964              3.936
 Vibration     4          0.600              1.961              3.831
 Vibration     5          0.606              1.942              3.276
 Vibration     6          0.609              1.932              3.089
 Vibration     7          0.618              1.902              2.662
 Vibration     8          0.625              1.880              2.445
 Vibration     9          0.627              1.873              2.384
 Vibration    10          0.652              1.796              1.881
 Vibration    11          0.658              1.777              1.793
 Vibration    12          0.677              1.720              1.568
 Vibration    13          0.684              1.697              1.490
 Vibration    14          0.692              1.677              1.426
 Vibration    15          0.695              1.666              1.393
 Vibration    16          0.701              1.649              1.347
 Vibration    17          0.706              1.636              1.311
 Vibration    18          0.709              1.626              1.287
 Vibration    19          0.731              1.565              1.143
 Vibration    20          0.741              1.537              1.085
 Vibration    21          0.750              1.511              1.036
 Vibration    22          0.775              1.447              0.924
 Vibration    23          0.787              1.417              0.877
 Vibration    24          0.792              1.404              0.857
 Vibration    25          0.819              1.335              0.762
 Vibration    26          0.827              1.317              0.738
 Vibration    27          0.852              1.258              0.667
 Vibration    28          0.872              1.213              0.617
 Vibration    29          0.914              1.121              0.527
 Vibration    30          0.928              1.093              0.501
 Vibration    31          0.946              1.055              0.469
 Vibration    32          0.962              1.024              0.444
 Vibration    33          0.981              0.988              0.415

 Normal termination of Gaussian 09 at Sat Mar 26 22:25:31 2016.
