 Gaussian 09, Revision B.01,
 Gaussian 09:  EM64L-G09RevB.01 12-Aug-2010

 ------------------------------------------------
 # freq=raman b3lyp/6-31+g(d,p) geom=connectivity
 ------------------------------------------------

 ------------
 450 9000.com
 ------------
 Symbolic Z-matrix:
 Charge =  0 Multiplicity = 1

                         Standard orientation:
 ---------------------------------------------------------------------
 Center     Atomic      Atomic             Coordinates (Angstroms)
 Number     Number       Type             X           Y           Z
 ---------------------------------------------------------------------
      1          8           0        4.965650   -0.330150   -0.930522
      2          6           0        3.809859   -0.027277   -0.136270
      3          6           0        3.324292    1.381899   -0.433174
      4          8           0        4.205660    2.477203   -0.142989
      5          1           0        5.177218    2.274959   -0.262012
      6          6           0        1.962146    1.659623    0.179843
      7          8           0        1.230655    2.719498   -0.452686
      8          1           0        1.654944    3.623414   -0.393998
      9          6           0        3.326274   -2.452952    0.140094
     10          8           0        3.405959   -2.840801    1.520550
     11          1           0        3.762100   -3.772614    1.581836
     12          6           0        2.786360   -1.127342   -0.370448
     13          8           0        1.638648   -0.799500    0.426502
     14          6           0        1.043801    0.453580    0.059335
     15          8           0       -0.239811    0.418255    0.699080
     16          6           0       -1.439336    0.147406   -0.040917
     17          6           0       -1.748732   -1.334326    0.106235
     18          8           0       -0.725597   -2.214291   -0.379961
     19          1           0        0.154513   -1.966256    0.025015
     20          6           0       -3.144830   -1.435806   -0.484356
     21          8           0       -3.585226   -2.801798   -0.477906
     22          1           0       -2.953054   -3.401071   -0.969337
     23          6           0       -2.259082    2.512092    0.226139
     24          8           0       -3.336641    3.422842    0.487348
     25          1           0       -3.781831    3.391821    1.381778
     26          6           0       -2.520243    1.046545    0.533482
     27          8           0       -3.729918    0.680634   -0.145867
     28          6           0       -4.212418   -0.618620    0.224470
     29          8           0       -5.380079   -0.841526   -0.580212
     30          1           0       -6.146227   -0.460664   -0.144825
     31          1           0       -4.314566   -0.799317    1.274144
     32          1           0       -3.097421   -1.106660   -1.501368
     33          1           0       -1.842340   -1.529950    1.154028
     34          1           0       -1.286178    0.382653   -1.073439
     35          1           0       -2.619025    0.892803    1.587762
     36          1           0       -2.002750    2.591891   -0.809634
     37          1           0       -1.414412    2.825337    0.803468
     38          1           0        5.749863    0.018472   -0.500322
     39          1           0        4.321645   -2.531777   -0.244516
     40          1           0        2.747698   -3.211384   -0.344602
     41          1           0        2.525771   -1.193440   -1.406124
     42          1           0        4.099209   -0.062978    0.893245
     43          1           0        3.175535    1.410770   -1.492390
     44          1           0        2.090386    1.896483    1.215387
     45          1           0        0.835990    0.375653   -0.987394
 ---------------------------------------------------------------------

 SCF Done:  E(RB3LYP) =  -1297.91819576     A.U. after   14 cycles

 The electronic state is 1-A.
 Alpha  occ. eigenvalues --  -19.19693 -19.19558 -19.19499 -19.18177 -19.17821
 Alpha  occ. eigenvalues --  -19.17497 -19.16744 -19.16290 -19.15909 -19.15371
 Alpha  occ. eigenvalues --  -19.14134 -10.31529 -10.29846 -10.27835 -10.27047
 Alpha  occ. eigenvalues --  -10.27031 -10.26753 -10.25080 -10.25071 -10.24832
 Alpha  occ. eigenvalues --  -10.23925 -10.23468 -10.23017  -1.10029  -1.07644
 Alpha  occ. eigenvalues --   -1.07090  -1.05147  -1.04062  -1.03318  -1.02888
 Alpha  occ. eigenvalues --   -1.01981  -1.01444  -1.00201  -0.99554  -0.82491
 Alpha  occ. eigenvalues --   -0.81984  -0.79004  -0.77954  -0.72341  -0.69780
 Alpha  occ. eigenvalues --   -0.68035  -0.65210  -0.63435  -0.62303  -0.61727
 Alpha  occ. eigenvalues --   -0.60664  -0.57359  -0.56203  -0.55559  -0.54277
 Alpha  occ. eigenvalues --   -0.53518  -0.53242  -0.53105  -0.52389  -0.51380
 Alpha  occ. eigenvalues --   -0.50197  -0.49626  -0.48793  -0.47797  -0.46680
 Alpha  occ. eigenvalues --   -0.46058  -0.45527  -0.44860  -0.43716  -0.43341
 Alpha  occ. eigenvalues --   -0.42904  -0.42304  -0.40995  -0.40334  -0.39082
 Alpha  occ. eigenvalues --   -0.38872  -0.37236  -0.36649  -0.36072  -0.35767
 Alpha  occ. eigenvalues --   -0.35617  -0.34886  -0.33983  -0.33268  -0.32938
 Alpha  occ. eigenvalues --   -0.31859  -0.31152  -0.30907  -0.30437  -0.30071
 Alpha  occ. eigenvalues --   -0.29286  -0.28871  -0.28312  -0.27386  -0.26181
 Alpha  occ. eigenvalues --   -0.25718
 Alpha virt. eigenvalues --   -0.04051  -0.02104  -0.00835  -0.00246   0.00387
 Alpha virt. eigenvalues --    0.01354   0.01686   0.02064   0.02439   0.02783
 Alpha virt. eigenvalues --    0.03429   0.04272   0.04740   0.05042   0.05859

 Mulliken atomic charges:
              1
     1  O   -0.536879
     2  C   -0.222654
     3  C    0.148774
     4  O   -0.547129
     5  H    0.341409
     6  C    0.076091
     7  O   -0.539086
     8  H    0.381859
     9  C   -0.347697
    10  O   -0.539113
    11  H    0.357144
    12  C    0.383802
    13  O   -0.382408
    14  C    0.233071
    15  O   -0.344245
    16  C    0.020245
    17  C   -0.112713
    18  O   -0.561440
    19  H    0.416603
    20  C   -0.088303
    21  O   -0.490844
    22  H    0.358713
    23  C    0.040326
    24  O   -0.527294
    25  H    0.340074
    26  C   -0.131751
    27  O   -0.305696
    28  C    0.424317
    29  O   -0.508538
    30  H    0.348589
    31  H    0.134977
    32  H    0.147296
    33  H    0.134820
    34  H    0.129568
    35  H    0.126729
    36  H    0.142320
    37  H    0.155381
    38  H    0.353408
    39  H    0.155993
    40  H    0.131501
    41  H    0.146981
    42  H    0.158713
    43  H    0.149511
    44  H    0.151315
    45  H    0.096263
 Sum of Mulliken atomic charges =   0.00000

 Dipole moment (field-independent basis, Debye):
    X=              6.8137    Y=              0.3082    Z=              1.8097  Tot=              7.0566
 Quadrupole moment (field-independent basis, Debye-Ang):
   XX=           -116.1380   YY=           -141.3655   ZZ=           -139.4928
   XY=             -6.0169   XZ=            -14.7173   YZ=              5.2059

  Exact polarizability: 223.389  -0.016 193.533  -2.142   1.438 145.454
 Approx polarizability: 261.959  -1.238 248.525  -1.430   0.805 234.962

 ******    6 imaginary frequencies (negative Signs) ******

                     1                      2                      3
                     A                      A                      A
 Frequencies --  -311.5243              -287.7097              -223.8108
 Red. masses --     1.7440                 1.0526                 1.1743
 Frc consts  --     0.0997                 0.0513                 0.0347
 IR Inten    --     5.4458               128.6935               102.4517
 Raman Activ --     0.2041                 2.1033                 1.0231

                     4                      5                      6
                     A                      A                      A
 Frequencies --  -191.6109               -76.6524               -72.1504
 Red. masses --     1.7446                 6.5628                 6.4032
 Frc consts  --     0.0377                 0.0227                 0.0196
 IR Inten    --     5.9671                 2.7533                 1.3554
 Raman Activ --     0.0786                 0.0189                 0.1320

                     7                      8                      9
                     A                      A                      A
 Frequencies --     6.9861                29.6859                43.7640
 Red. masses --     7.0715                 6.5188                 6.8902
 Frc consts  --     0.0002                 0.0034                 0.0078
 IR Inten    --     0.2052                 2.3690                 1.0510
 Raman Activ --     0.0428                 0.0467                 0.0662

                    10                     11                     12
                     A                      A                      A
 Frequencies --    48.3592                97.7641               112.3289
 Red. masses --     6.1677                 7.5008                 6.5958
 Frc consts  --     0.0085                 0.0422                 0.0490
 IR Inten    --     1.3668                 0.6391                 1.3510
 Raman Activ --     0.0766                 0.2154                 0.4969

                    13                     14                     15
                     A                      A                      A
 Frequencies --   145.4110               161.8571               173.6453
 Red. masses --     6.7500                 6.4887                 6.0513
 Frc consts  --     0.0841                 0.1002                 0.1075
 IR Inten    --     0.8722                 1.6602                 2.2641
 Raman Activ --     0.1839                 0.4396                 0.3681

                    16                     17                     18
                     A                      A                      A
 Frequencies --   187.8338               211.3022               235.7377
 Red. masses --     6.4745                 5.7140                 6.4106
 Frc consts  --     0.1346                 0.1503                 0.2099
 IR Inten    --     2.8880                 1.1815                 6.8578
 Raman Activ --     1.6366                 0.9917                 0.5750

                    19                     20                     21
                     A                      A                      A
 Frequencies --   260.5375               285.5060               293.8922
 Red. masses --     5.3992                 5.2898                 4.6222
 Frc consts  --     0.2159                 0.2540                 0.2352
 IR Inten    --     8.1534                11.5976                 6.1733
 Raman Activ --     1.1190                 0.3117                 0.2663

                    22                     23                     24
                     A                      A                      A
 Frequencies --   300.2151               310.9377               322.8073
 Red. masses --     5.5164                 4.9049                 6.1778
 Frc consts  --     0.2929                 0.2794                 0.3793
 IR Inten    --     3.3325                 7.9519                 3.5327
 Raman Activ --     0.5501                 1.4046                 2.8779

                    25                     26                     27
                     A                      A                      A
 Frequencies --   337.7902               364.8415               390.9005
 Red. masses --     6.5325                 6.6833                 3.8928
 Frc consts  --     0.4392                 0.5241                 0.3505
 IR Inten    --    11.4828                 2.6788                 3.9602
 Raman Activ --     1.4283                 1.8020                 3.6124

                    28                     29                     30
                     A                      A                      A
 Frequencies --   405.4433               420.7510               433.5955
 Red. masses --     6.4117                 5.7611                 4.8428
 Frc consts  --     0.6210                 0.6009                 0.5364
 IR Inten    --     1.0468                 1.9560                11.8010
 Raman Activ --     5.5481                 1.4783                 1.9978

                    31                     32                     33
                     A                      A                      A
 Frequencies --   452.6074               485.7147               508.6566
 Red. masses --     4.9543                 3.9960                 4.7653
 Frc consts  --     0.5980                 0.5554                 0.7264
 IR Inten    --     8.9828                24.2168                11.8051
 Raman Activ --     0.2164                 6.8912                 0.8028

                    34                     35                     36
                     A                      A                      A
 Frequencies --   517.5848               538.7466               553.8880
 Red. masses --     3.6665                 3.2441                 2.6800
 Frc consts  --     0.5787                 0.5548                 0.4844
 IR Inten    --     8.8617                41.1859                53.4813
 Raman Activ --     2.7851                 5.6905                 0.7111

                    37                     38                     39
                     A                      A                      A
 Frequencies --   576.3087               583.3291               598.3860
 Red. masses --     5.2074                 1.1801                 1.1897
 Frc consts  --     1.0190                 0.2366                 0.2510
 IR Inten    --     1.2203               138.2770                70.6800
 Raman Activ --     1.5675                 1.1479                 2.2473

                    40                     41                     42
                     A                      A                      A
 Frequencies --   608.6867               639.7578               647.2302
 Red. masses --     2.7908                 3.2131                 1.0631
 Frc consts  --     0.6092                 0.7748                 0.2624
 IR Inten    --    27.4061                21.5273               116.5861
 Raman Activ --     1.0299                 0.2709                 2.1503

                    43                     44                     45
                     A                      A                      A
 Frequencies --   661.4865               675.5356               691.3453
 Red. masses --     4.6656                 1.1349                 1.0809
 Frc consts  --     1.2028                 0.3051                 0.3044
 IR Inten    --    14.9025               109.1364               112.0781
 Raman Activ --     0.9861                 2.0724                 1.9248

                    46                     47                     48
                     A                      A                      A
 Frequencies --   694.9577               784.9184               847.3981
 Red. masses --     3.5969                 1.0616                 2.4317
 Frc consts  --     1.0235                 0.3853                 1.0288
 IR Inten    --    16.7655               122.4134                12.9178
 Raman Activ --     0.2745                 2.1973                 2.7161

                    49                     50                     51
                     A                      A                      A
 Frequencies --   851.1655               880.7184               942.2309
 Red. masses --     2.3988                 2.7221                 6.1129
 Frc consts  --     1.0239                 1.2440                 3.1975
 IR Inten    --     9.1759                 8.1633               193.6206
 Raman Activ --     3.0593                 4.5764                 3.8938

                    52                     53                     54
                     A                      A                      A
 Frequencies --   961.0495               972.8591              1000.7229
 Red. masses --     6.0277                 4.2404                 4.5068
 Frc consts  --     3.2801                 2.3646                 2.6592
 IR Inten    --    91.8474                81.3566               160.4389
 Raman Activ --     0.7945                 1.8171                 6.4078

                    55                     56                     57
                     A                      A                      A
 Frequencies --  1002.6622              1022.3172              1026.9284
 Red. masses --     4.7024                 2.6758                 3.5636
 Frc consts  --     2.7854                 1.6477                 2.2142
 IR Inten    --    24.1935                72.1162               113.1591
 Raman Activ --     3.5194                 1.0096                 1.5637

                    58                     59                     60
                     A                      A                      A
 Frequencies --  1033.1609              1041.6985              1049.9820
 Red. masses --     4.5875                 3.1256                 2.8701
 Frc consts  --     2.8851                 1.9983                 1.8643
 IR Inten    --   258.0627               165.2231               103.4725
 Raman Activ --     1.8127                 4.7204                 5.7730

                    61                     62                     63
                     A                      A                      A
 Frequencies --  1058.2279              1074.4771              1078.9888
 Red. masses --     3.7698                 3.0225                 3.9825
 Frc consts  --     2.4873                 2.0559                 2.7317
 IR Inten    --   121.3543               106.5972                60.8510
 Raman Activ --    19.0361                 5.0536                 1.8130

                    64                     65                     66
                     A                      A                      A
 Frequencies --  1083.4016              1096.4416              1100.9320
 Red. masses --     3.0263                 2.4701                 3.0635
 Frc consts  --     2.0929                 1.7496                 2.1877
 IR Inten    --    40.2735                33.6892                 0.7741
 Raman Activ --     2.9570                 4.5066                 3.7209

                    67                     68                     69
                     A                      A                      A
 Frequencies --  1115.6430              1119.2284              1126.0864
 Red. masses --     2.1934                 2.2510                 2.1822
 Frc consts  --     1.6085                 1.6614                 1.6304
 IR Inten    --    11.4343               165.0698                15.6109
 Raman Activ --     2.7495                 5.2437                 6.0846

                    70                     71                     72
                     A                      A                      A
 Frequencies --  1133.7500              1154.0791              1154.5970
 Red. masses --     2.0350                 3.3433                 3.1611
 Frc consts  --     1.5411                 2.6236                 2.4829
 IR Inten    --    29.9351                48.2194                 4.9111
 Raman Activ --     2.4234                 2.7701                 7.6717

                    73                     74                     75
                     A                      A                      A
 Frequencies --  1170.1971              1173.8347              1183.3889
 Red. masses --     2.6768                 3.1809                 1.6948
 Frc consts  --     2.1597                 2.5823                 1.3983
 IR Inten    --    32.8910                91.0734                11.2119
 Raman Activ --     1.6121                 1.3171                 2.8600

                    76                     77                     78
                     A                      A                      A
 Frequencies --  1189.4104              1203.3487              1207.3942
 Red. masses --     1.5173                 1.2843                 1.2800
 Frc consts  --     1.2647                 1.0957                 1.0994
 IR Inten    --     6.1943                12.8945                20.7573
 Raman Activ --     1.2490                 2.3141                 2.6273

                    79                     80                     81
                     A                      A                      A
 Frequencies --  1219.8481              1236.6993              1248.1352
 Red. masses --     1.2749                 1.5098                 1.3442
 Frc consts  --     1.1178                 1.3605                 1.2337
 IR Inten    --    34.7405                 3.3165                 7.0346
 Raman Activ --     2.2124                 4.1371                 2.9157

                    82                     83                     84
                     A                      A                      A
 Frequencies --  1256.3495              1263.1778              1271.2484
 Red. masses --     1.3531                 1.2875                 1.1822
 Frc consts  --     1.2583                 1.2104                 1.1256
 IR Inten    --     3.1333                22.4420                27.1366
 Raman Activ --     2.8783                 3.5034                 3.3058

                    85                     86                     87
                     A                      A                      A
 Frequencies --  1297.8383              1300.2567              1304.0729
 Red. masses --     1.2118                 1.1927                 1.2754
 Frc consts  --     1.2026                 1.1881                 1.2779
 IR Inten    --    32.6054                57.8649                28.7910
 Raman Activ --     1.4205                 5.3562                 4.7291

                    88                     89                     90
                     A                      A                      A
 Frequencies --  1319.8507              1321.1652              1327.1139
 Red. masses --     1.2205                 1.3122                 1.2154
 Frc consts  --     1.2527                 1.3495                 1.2613
 IR Inten    --     3.3661                 8.9726                20.7299
 Raman Activ --     3.5237                 6.8031                 5.5676

                    91                     92                     93
                     A                      A                      A
 Frequencies --  1331.2667              1343.3353              1347.8499
 Red. masses --     1.3181                 1.2397                 1.3537
 Frc consts  --     1.3763                 1.3181                 1.4490
 IR Inten    --    25.6542                 1.1753                 1.5918
 Raman Activ --     4.3361                 6.2222                 5.2323

                    94                     95                     96
                     A                      A                      A
 Frequencies --  1348.9408              1355.2282              1367.5583
 Red. masses --     1.4228                 1.3127                 1.4291
 Frc consts  --     1.5254                 1.4205                 1.5747
 IR Inten    --    39.4078                38.5789                31.6244
 Raman Activ --     5.5305                 1.8267                 2.8961

                    97                     98                     99
                     A                      A                      A
 Frequencies --  1374.2208              1384.1521              1387.1256
 Red. masses --     1.2255                 1.2707                 1.4058
 Frc consts  --     1.3636                 1.4344                 1.5937
 IR Inten    --    19.5533                 2.9053                44.4693
 Raman Activ --     1.1601                 3.3432                 1.6858

                   100                    101                    102
                     A                      A                      A
 Frequencies --  1391.1719              1405.8710              1428.4005
 Red. masses --     1.5149                 1.8254                 1.3828
 Frc consts  --     1.7274                 2.1257                 1.6623
 IR Inten    --    28.9701                 9.0303                27.0664
 Raman Activ --     4.6884                 3.7133                 6.4799

                   103                    104                    105
                     A                      A                      A
 Frequencies --  1433.6386              1455.2453              1459.2118
 Red. masses --     1.7559                 1.3421                 1.0823
 Frc consts  --     2.1263                 1.6746                 1.3577
 IR Inten    --    24.0403                25.9835                 2.8305
 Raman Activ --     5.4615                 3.1554                 6.4954

                   106                    107                    108
                     A                      A                      A
 Frequencies --  1464.2477              1481.2586              3268.4874
 Red. masses --     1.3554                 1.0818                 1.0617
 Frc consts  --     1.7122                 1.3985                 6.6823
 IR Inten    --     9.5337                 2.7454                34.4678
 Raman Activ --     1.7261                 6.2946                92.6829

                   109                    110                    111
                     A                      A                      A
 Frequencies --  3270.1627              3280.6053              3282.0722
 Red. masses --     1.0826                 1.0826                 1.0819
 Frc consts  --     6.8212                 6.8650                 6.8668
 IR Inten    --    13.6921                25.4010                 6.9949
 Raman Activ --     8.0226                48.4616               160.3360

                   112                    113                    114
                     A                      A                      A
 Frequencies --  3284.5500              3292.3574              3296.4003
 Red. masses --     1.0586                 1.0841                 1.0857
 Frc consts  --     6.7290                 6.9236                 6.9511
 IR Inten    --    23.8402                10.6796                 4.8701
 Raman Activ --   103.7469                97.9884                42.9018

                   115                    116                    117
                     A                      A                      A
 Frequencies --  3296.5871              3308.4092              3309.5979
 Red. masses --     1.0850                 1.0864                 1.0864
 Frc consts  --     6.9470                 7.0061                 7.0112
 IR Inten    --     2.5555                26.9268                32.5888
 Raman Activ --    11.1938                79.8717                11.1690

                   118                    119                    120
                     A                      A                      A
 Frequencies --  3311.9653              3317.1014              3323.4852
 Red. masses --     1.0941                 1.0925                 1.0874
 Frc consts  --     7.0709                 7.0827                 7.0769
 IR Inten    --    55.8440                24.9125                51.3980
 Raman Activ --    36.9896                27.4232                73.2717

                   121                    122                    123
                     A                      A                      A
 Frequencies --  3328.1351              3348.4049              3391.4758
 Red. masses --     1.0701                 1.1060                 1.0668
 Frc consts  --     6.9839                 7.3059                 7.2296
 IR Inten    --   479.8764                27.6771                33.8069
 Raman Activ --   186.7848                40.6902                94.5464

                   124                    125                    126
                     A                      A                      A
 Frequencies --  3392.7305              3395.9715              3397.2062
 Red. masses --     1.0694                 1.0673                 1.0676
 Frc consts  --     7.2528                 7.2518                 7.2594
 IR Inten    --    25.2230                25.4039                74.2581
 Raman Activ --    90.5955                97.4003               171.0633

                   127                    128                    129
                     A                      A                      A
 Frequencies --  3398.5811              3910.8554              3917.3988
 Red. masses --     1.0675                 1.0674                 1.0669
 Frc consts  --     7.2649                 9.6184                 9.6467
 IR Inten    --    55.7121                42.2816                45.8067
 Raman Activ --   173.3512               107.0756               165.1945

 - Thermochemistry -
 -------------------
 Temperature   298.150 Kelvin.  Pressure   1.00000 Atm.
 Atom     1 has atomic number  8 and mass  15.99491

 Molecular mass:   342.11621 amu.
 Principal axes and moments of inertia in atomic units:
                           1         2         3
     Eigenvalues --  4560.74628********************
           X            0.99998  -0.00586  -0.00323
           Y            0.00587   0.99998   0.00311
           Z            0.00321  -0.00313   0.99999
 This molecule is an asymmetric top.
 Rotational symmetry number  1.
 Warning -- assumption of classical behavior for rotation
           may cause significant error
 Rotational temperatures (Kelvin)      0.01899     0.00693     0.00534
 Rotational constants (GHZ):           0.39571     0.14447     0.11128
    6 imaginary frequencies ignored.
 Zero-point vibrational energy     970795.7 (Joules/Mol)
                                  232.02575 (Kcal/Mol)
 Warning -- explicit consideration of  34 degrees of freedom as
           vibrations may cause significant error
 Vibrational temperatures:     10.05    42.71    62.97    69.58   140.66
          (Kelvin)            161.62   209.21   232.88   249.84   270.25
                              304.02   339.17   374.85   410.78   422.84
                              431.94   447.37   464.45   486.00   524.92
                              562.42   583.34   605.37   623.85   651.20
                              698.83   731.84   744.69   775.14   796.92
                              829.18   839.28   860.94   875.76   920.47
                              931.22   951.73   971.94   994.69   999.89
                             1129.32  1219.22  1224.64  1267.16  1355.66
                             1382.73  1399.73  1439.82  1442.61  1470.88
                             1477.52  1486.49  1498.77  1510.69  1522.55
                             1545.93  1552.42  1558.77  1577.53  1583.99
                             1605.16  1610.32  1620.19  1631.21  1660.46
                             1661.21  1683.65  1688.88  1702.63  1711.29
                             1731.35  1737.17  1755.09  1779.33  1795.79
                             1807.60  1817.43  1829.04  1867.30  1870.78
                             1876.27  1898.97  1900.86  1909.42  1915.39
                             1932.76  1939.25  1940.82  1949.87  1967.61
                             1977.19  1991.48  1995.76  2001.58  2022.73
                             2055.15  2062.68  2093.77  2099.48  2106.72
                             2131.20  4702.62  4705.03  4720.05  4722.16
                             4725.73  4736.96  4742.78  4743.05  4760.06
                             4761.77  4765.17  4772.56  4781.75  4788.44
                             4817.60  4879.57  4881.38  4886.04  4887.82
                             4889.79  5626.84  5636.26

 Zero-point correction=                           0.369757 (Hartree/Particle)
 Thermal correction to Energy=                    0.389544
 Thermal correction to Enthalpy=                  0.390488
 Thermal correction to Gibbs Free Energy=         0.319523
 Sum of electronic and zero-point Energies=          -1297.548439
 Sum of electronic and thermal Energies=             -1297.528652
 Sum of electronic and thermal Enthalpies=           -1297.527708
 Sum of electronic and thermal Free Energies=        -1297.598673

                     E (Thermal)             CV                S
                      KCal/Mol        Cal/Mol-Kelvin    Cal/Mol-Kelvin
 Total                  244.443             79.229            149.358
 Electronic               0.000              0.000              0.000
 Translational            0.889              2.981             43.384
 Rotational               0.889              2.981             35.179
 Vibrational            242.665             73.267             70.795
 Vibration     1          0.593              1.987              8.724
 Vibration     2          0.593              1.984              5.850
 Vibration     3          0.595              1.980              5.081
 Vibration     4          0.595              1.978              4.883
 Vibration     5          0.603              1.951              3.498
 Vibration     6          0.607              1.939              3.228
 Vibration     7          0.617              1.908              2.731
 Vibration     8          0.622              1.889              2.528
 Vibration     9          0.627              1.875              2.396
 Vibration    10          0.633              1.857              2.249
 Vibration    11          0.643              1.824              2.032
 Vibration    12          0.655              1.786              1.835
 Vibration    13          0.669              1.745              1.658
 Vibration    14          0.683              1.701              1.500
 Vibration    15          0.689              1.685              1.451
 Vibration    16          0.693              1.673              1.416
 Vibration    17          0.700              1.653              1.357
 Vibration    18          0.708              1.630              1.296
 Vibration    19          0.718              1.600              1.223
 Vibration    20          0.738              1.545              1.101
 Vibration    21          0.759              1.490              0.997
 Vibration    22          0.770              1.458              0.943
 Vibration    23          0.783              1.425              0.889
 Vibration    24          0.794              1.397              0.847
 Vibration    25          0.811              1.355              0.788
 Vibration    26          0.842              1.282              0.695
 Vibration    27          0.864              1.231              0.637
 Vibration    28          0.873              1.211              0.616
 Vibration    29          0.894              1.164              0.568
 Vibration    30          0.909              1.131              0.536
 Vibration    31          0.933              1.083              0.492
 Vibration    32          0.940              1.067              0.479
 Vibration    33          0.956              1.035              0.452
 Vibration    34          0.968              1.013              0.435

 Normal termination of Gaussian 09 at Thu Jan 21 17:50:18 2016.
