 Gaussian 09, Revision B.01,
 Gaussian 09:  EM64L-G09RevB.01 12-Aug-2010

 -------------------------------------------------
 # freq=raman b3lyp/6-31+g(2d,p) geom=connectivity
 -------------------------------------------------

 -----------------
 290 9416/9416.com
 -----------------
 Symbolic Z-matrix:
 Charge =  0 Multiplicity = 1

                         Standard orientation:
 ---------------------------------------------------------------------
 Center     Atomic      Atomic             Coordinates (Angstroms)
 Number     Number       Type             X           Y           Z
 ---------------------------------------------------------------------
      1          8           0       -5.083765   -0.429524    0.360310
      2          6           0       -3.818175   -0.030316   -0.185867
      3          6           0       -3.296406    1.324405    0.261796
      4          8           0       -4.258238    2.314268   -0.132848
      5          1           0       -5.087930    1.844731    0.169180
      6          6           0       -1.871266    1.504966   -0.234475
      7          8           0       -1.262672    2.691457    0.296008
      8          1           0       -0.390549    2.704197   -0.192837
      9          6           0       -3.049327   -2.498283    0.009096
     10          8           0       -4.225309   -3.269970    0.296415
     11          1           0       -3.951604   -4.165263    0.647085
     12          6           0       -2.798383   -1.034056    0.326133
     13          8           0       -1.576504   -0.808762   -0.391966
     14          6           0       -0.932602    0.364410    0.126645
     15          8           0        0.276841    0.475066   -0.637382
     16          6           0        1.536321    0.155977   -0.027727
     17          6           0        2.094418   -1.183810   -0.477900
     18          8           0        1.161334   -2.261763   -0.319932
     19          1           0        0.285084   -1.919373   -0.656776
     20          6           0        3.417141   -1.557802    0.171111
     21          8           0        3.953080   -2.810342   -0.282378
     22          1           0        4.922264   -2.814439   -0.034256
     23          6           0        2.301819    2.587317    0.289421
     24          8           0        1.299090    3.405246   -0.330382
     25          1           0        1.381410    4.372872   -0.093766
     26          6           0        2.577049    1.224348   -0.323890
     27          8           0        3.823679    0.898121    0.308958
     28          6           0        4.369999   -0.389003   -0.016148
     29          8           0        5.521305   -0.460910    0.837141
     30          1           0        6.308180   -0.590271    0.302638
     31          1           0        4.697638   -0.375340   -1.034660
     32          1           0        3.237911   -1.655090    1.221497
     33          1           0        2.284161   -1.095404   -1.527225
     34          1           0        1.391439    0.116750    1.031693
     35          1           0        2.716679    1.319025   -1.380507
     36          1           0        3.219412    3.137690    0.285789
     37          1           0        2.013371    2.434020    1.308341
     38          1           0       -5.669048   -0.698326   -0.351581
     39          1           0       -2.915224   -2.580157   -1.049305
     40          1           0       -2.248198   -3.026206    0.482792
     41          1           0       -2.640023   -0.902507    1.376141
     42          1           0       -3.857054   -0.068021   -1.254495
     43          1           0       -3.263161    1.320197    1.331272
     44          1           0       -1.898618    1.590544   -1.300696
     45          1           0       -0.750397    0.298366    1.178947
 ---------------------------------------------------------------------

 SCF Done:  E(RB3LYP) =  -1297.98591573     A.U. after   13 cycles

 The electronic state is 1-A.
 Alpha  occ. eigenvalues --  -19.19041 -19.18444 -19.18355 -19.17943 -19.17891
 Alpha  occ. eigenvalues --  -19.17149 -19.17132 -19.15865 -19.15332 -19.15124
 Alpha  occ. eigenvalues --  -19.13725 -10.31138 -10.30900 -10.26443 -10.26402
 Alpha  occ. eigenvalues --  -10.25462 -10.25220 -10.25052 -10.24979 -10.24879
 Alpha  occ. eigenvalues --  -10.24442 -10.24317 -10.23667  -1.10309  -1.09519
 Alpha  occ. eigenvalues --   -1.05678  -1.04790  -1.04337  -1.03904  -1.03277
 Alpha  occ. eigenvalues --   -1.02481  -1.02091  -1.01565  -1.00776  -0.82591
 Alpha  occ. eigenvalues --   -0.80296  -0.80158  -0.78349  -0.72073  -0.69851
 Alpha  occ. eigenvalues --   -0.67615  -0.65168  -0.63586  -0.62003  -0.61716
 Alpha  occ. eigenvalues --   -0.60713  -0.56874  -0.56114  -0.55265  -0.54961
 Alpha  occ. eigenvalues --   -0.53820  -0.53427  -0.52999  -0.52227  -0.51545
 Alpha  occ. eigenvalues --   -0.50921  -0.50254  -0.49132  -0.48156  -0.46402
 Alpha  occ. eigenvalues --   -0.45942  -0.45461  -0.44589  -0.43684  -0.43482
 Alpha  occ. eigenvalues --   -0.42540  -0.42250  -0.41486  -0.40776  -0.39835
 Alpha  occ. eigenvalues --   -0.39487  -0.38477  -0.37210  -0.36303  -0.36074
 Alpha  occ. eigenvalues --   -0.35768  -0.35461  -0.34898  -0.34444  -0.34297
 Alpha  occ. eigenvalues --   -0.33369  -0.31776  -0.31391  -0.30547  -0.30283
 Alpha  occ. eigenvalues --   -0.29557  -0.28762  -0.28362  -0.27680  -0.27359
 Alpha  occ. eigenvalues --   -0.26240
 Alpha virt. eigenvalues --   -0.02469  -0.01709  -0.01575  -0.00392   0.00288
 Alpha virt. eigenvalues --    0.00654   0.01785   0.02153   0.03192   0.03485
 Alpha virt. eigenvalues --    0.03828   0.04118   0.04454   0.05060   0.05593

 Mulliken atomic charges:
              1
     1  O   -0.540815
     2  C   -0.023683
     3  C    0.155606
     4  O   -0.553689
     5  H    0.345512
     6  C   -0.077704
     7  O   -0.537398
     8  H    0.400400
     9  C   -0.398560
    10  O   -0.538042
    11  H    0.336634
    12  C    0.397029
    13  O   -0.267753
    14  C    0.103919
    15  O   -0.283842
    16  C    0.287347
    17  C    0.226667
    18  O   -0.542442
    19  H    0.365323
    20  C    0.039443
    21  O   -0.526358
    22  H    0.329833
    23  C   -0.199453
    24  O   -0.570756
    25  H    0.354794
    26  C   -0.144368
    27  O   -0.204899
    28  C    0.090371
    29  O   -0.517165
    30  H    0.333468
    31  H    0.123701
    32  H    0.129820
    33  H    0.113029
    34  H    0.108293
    35  H    0.127599
    36  H    0.147224
    37  H    0.153221
    38  H    0.345233
    39  H    0.145848
    40  H    0.138730
    41  H    0.108796
    42  H    0.126659
    43  H    0.121216
    44  H    0.135675
    45  H    0.135538
 Sum of Mulliken atomic charges =   0.00000

 Dipole moment (field-independent basis, Debye):
    X=              3.4225    Y=             -0.1706    Z=             -0.6891  Tot=              3.4954
 Quadrupole moment (field-independent basis, Debye-Ang):
   XX=           -120.6431   YY=           -142.3596   ZZ=           -138.6411
   XY=             14.3620   XZ=             -3.1015   YZ=             -2.2478

  Exact polarizability: 233.160  -0.894 197.757   1.286   0.087 143.868
 Approx polarizability: 274.186   0.705 257.740   1.851  -0.274 239.954

 ******    6 imaginary frequencies (negative Signs) ******

                     1                      2                      3
                     A                      A                      A
 Frequencies --  -311.8472              -244.0437              -215.8667
 Red. masses --     1.5981                 1.8213                 1.2458
 Frc consts  --     0.0916                 0.0639                 0.0342
 IR Inten    --     4.6394                 5.7590                73.8438
 Raman Activ --     0.0941                 0.0432                 0.7844

                     4                      5                      6
                     A                      A                      A
 Frequencies --  -212.7147               -59.4113               -52.9435
 Red. masses --     1.1840                 6.7374                 6.1466
 Frc consts  --     0.0316                 0.0140                 0.0102
 IR Inten    --   122.1198                 0.8858                 0.4334
 Raman Activ --     0.7268                 0.0559                 0.0293

                     7                      8                      9
                     A                      A                      A
 Frequencies --    20.1092                41.6325                66.0219
 Red. masses --     6.5776                 6.6849                 6.3621
 Frc consts  --     0.0016                 0.0068                 0.0163
 IR Inten    --     2.0031                 0.0459                 1.3158
 Raman Activ --     0.0336                 0.1020                 0.1627

                    10                     11                     12
                     A                      A                      A
 Frequencies --    80.4898                99.6953               104.0519
 Red. masses --     6.6692                 5.8574                 5.5743
 Frc consts  --     0.0255                 0.0343                 0.0356
 IR Inten    --     1.7286                 0.5375                 6.3644
 Raman Activ --     0.1342                 0.1301                 0.0667

                    13                     14                     15
                     A                      A                      A
 Frequencies --   146.7556               167.6192               175.8789
 Red. masses --     6.7826                 6.1466                 7.7077
 Frc consts  --     0.0861                 0.1017                 0.1405
 IR Inten    --     3.7813                 1.9889                 1.2578
 Raman Activ --     0.3925                 0.4117                 0.9385

                    16                     17                     18
                     A                      A                      A
 Frequencies --   197.3946               231.8869               257.6129
 Red. masses --     6.4598                 6.0016                 5.1315
 Frc consts  --     0.1483                 0.1901                 0.2006
 IR Inten    --     0.3138                 1.7154                 3.4219
 Raman Activ --     1.3888                 1.4742                 0.2770

                    19                     20                     21
                     A                      A                      A
 Frequencies --   276.2528               284.1841               296.9203
 Red. masses --     4.5031                 4.5944                 5.1424
 Frc consts  --     0.2025                 0.2186                 0.2671
 IR Inten    --     4.5862                 2.8771                 1.2740
 Raman Activ --     0.3341                 0.3890                 0.3178

                    22                     23                     24
                     A                      A                      A
 Frequencies --   302.8524               313.3359               324.2126
 Red. masses --     5.6189                 4.7843                 6.4259
 Frc consts  --     0.3036                 0.2768                 0.3980
 IR Inten    --    10.4105                 2.9494                 0.6774
 Raman Activ --     0.5304                 1.2407                 2.2041

                    25                     26                     27
                     A                      A                      A
 Frequencies --   342.1396               346.9268               376.0956
 Red. masses --     7.0148                 4.4685                 7.4842
 Frc consts  --     0.4838                 0.3169                 0.6237
 IR Inten    --    11.0883                 6.1744                 2.2078
 Raman Activ --     7.3538                 0.0237                 2.5315

                    28                     29                     30
                     A                      A                      A
 Frequencies --   401.4453               415.8913               426.7246
 Red. masses --     4.5899                 5.8893                 4.6611
 Frc consts  --     0.4358                 0.6002                 0.5001
 IR Inten    --    13.5602                 8.3597                 1.9582
 Raman Activ --     2.0653                 0.1976                 6.6445

                    31                     32                     33
                     A                      A                      A
 Frequencies --   435.8841               479.6144               484.2970
 Red. masses --     5.0049                 4.3513                 3.6081
 Frc consts  --     0.5603                 0.5897                 0.4986
 IR Inten    --     7.1046                 3.4964                13.6976
 Raman Activ --     2.2649                 1.9963                 0.7769

                    34                     35                     36
                     A                      A                      A
 Frequencies --   506.8468               529.0560               562.9721
 Red. masses --     4.6682                 3.1717                 3.6576
 Frc consts  --     0.7066                 0.5230                 0.6830
 IR Inten    --     5.9930                14.4081                15.8767
 Raman Activ --     1.3396                 4.2770                 2.1263

                    37                     38                     39
                     A                      A                      A
 Frequencies --   574.1908               597.5047               620.7167
 Red. masses --     2.7306                 5.0456                 5.4674
 Frc consts  --     0.5304                 1.0613                 1.2411
 IR Inten    --    58.6705                 3.0851                29.9438
 Raman Activ --     0.1997                 0.9109                 1.0004

                    40                     41                     42
                     A                      A                      A
 Frequencies --   628.8563               660.6907               675.0965
 Red. masses --     4.7458                 1.1530                 1.0811
 Frc consts  --     1.1058                 0.2965                 0.2903
 IR Inten    --     8.4719                68.5662               141.3862
 Raman Activ --     1.0174                 1.4246                 1.6106

                    43                     44                     45
                     A                      A                      A
 Frequencies --   689.7294               703.0065               779.4663
 Red. masses --     3.9074                 1.1087                 1.0947
 Frc consts  --     1.0952                 0.3228                 0.3919
 IR Inten    --    12.6439                84.2282               133.1907
 Raman Activ --     1.5287                 1.4639                 1.5856

                    46                     47                     48
                     A                      A                      A
 Frequencies --   781.8142               840.3116               854.2206
 Red. masses --     1.0776                 1.7619                 1.6984
 Frc consts  --     0.3881                 0.7330                 0.7302
 IR Inten    --    77.4520                 1.9704                 5.4351
 Raman Activ --     3.3411                 2.0731                 0.2490

                    49                     50                     51
                     A                      A                      A
 Frequencies --   898.5190               927.5599               950.1767
 Red. masses --     1.3334                 3.3395                 5.4069
 Frc consts  --     0.6342                 1.6928                 2.8761
 IR Inten    --    49.5370               158.7010                91.3233
 Raman Activ --     0.9120                 2.5915                 0.2231

                    52                     53                     54
                     A                      A                      A
 Frequencies --   973.0547               974.5128               979.4646
 Red. masses --     5.5502                 4.4218                 6.3905
 Frc consts  --     3.0962                 2.4741                 3.6121
 IR Inten    --    39.1975                13.9317                35.4675
 Raman Activ --     3.3958                 0.7883                 2.4374

                    55                     56                     57
                     A                      A                      A
 Frequencies --   996.6777              1016.0085              1021.9827
 Red. masses --     5.3167                 6.2896                 5.7099
 Frc consts  --     3.1117                 3.8253                 3.5137
 IR Inten    --   460.1555                24.3225               147.9648
 Raman Activ --     0.6186                 1.1868                 3.4113

                    58                     59                     60
                     A                      A                      A
 Frequencies --  1037.6914              1061.3057              1063.9088
 Red. masses --     6.4355                 5.3106                 4.8219
 Frc consts  --     4.0829                 3.5243                 3.2157
 IR Inten    --   296.0809               163.8128                13.1157
 Raman Activ --     3.0897                 9.0071                 4.3133

                    61                     62                     63
                     A                      A                      A
 Frequencies --  1073.2304              1074.3407              1079.2949
 Red. masses --     3.8564                 3.5568                 3.4197
 Frc consts  --     2.6171                 2.4188                 2.3471
 IR Inten    --    37.9784                41.9775                 3.1883
 Raman Activ --     1.2891                21.8109                 5.0110

                    64                     65                     66
                     A                      A                      A
 Frequencies --  1092.4280              1105.9933              1111.0676
 Red. masses --     3.5361                 3.1786                 2.3528
 Frc consts  --     2.4863                 2.2908                 1.7113
 IR Inten    --   124.2105                51.7793                94.7789
 Raman Activ --     4.5049                 6.8760                 3.6411

                    67                     68                     69
                     A                      A                      A
 Frequencies --  1117.6378              1127.9455              1137.6114
 Red. masses --     2.4780                 2.7887                 2.5112
 Frc consts  --     1.8237                 2.0904                 1.9148
 IR Inten    --    46.9012                57.0660                18.6684
 Raman Activ --     3.3318                10.8664                 7.4443

                    70                     71                     72
                     A                      A                      A
 Frequencies --  1138.0563              1148.6110              1154.4987
 Red. masses --     3.2791                 1.8295                 2.1800
 Frc consts  --     2.5022                 1.4221                 1.7120
 IR Inten    --    45.4499                14.2116                15.1669
 Raman Activ --     2.7719                 6.8492                 1.5258

                    73                     74                     75
                     A                      A                      A
 Frequencies --  1160.3437              1170.5176              1186.7075
 Red. masses --     1.7399                 2.2413                 1.7990
 Frc consts  --     1.3802                 1.8093                 1.4927
 IR Inten    --     9.3262                18.4819                 3.8630
 Raman Activ --     3.3104                 1.9475                 1.5517

                    76                     77                     78
                     A                      A                      A
 Frequencies --  1208.5628              1212.4192              1216.7302
 Red. masses --     1.3270                 1.3603                 1.4100
 Frc consts  --     1.1420                 1.1781                 1.2299
 IR Inten    --    22.0535                 8.8872                 2.9513
 Raman Activ --     1.0627                 1.7165                 0.7685

                    79                     80                     81
                     A                      A                      A
 Frequencies --  1236.3393              1238.9125              1265.3272
 Red. masses --     1.2756                 1.1936                 1.3230
 Frc consts  --     1.1488                 1.0794                 1.2480
 IR Inten    --     0.9187                 2.7727                15.6921
 Raman Activ --     3.0934                 2.5341                 0.8782

                    82                     83                     84
                     A                      A                      A
 Frequencies --  1275.1830              1278.5537              1285.6410
 Red. masses --     1.1973                 1.1926                 1.3714
 Frc consts  --     1.1471                 1.1486                 1.3355
 IR Inten    --     5.7589                 5.3410                35.0276
 Raman Activ --     4.0551                 2.2066                 1.6861

                    85                     86                     87
                     A                      A                      A
 Frequencies --  1298.2224              1300.4194              1303.7062
 Red. masses --     1.2659                 1.2631                 1.4721
 Frc consts  --     1.2571                 1.2585                 1.4741
 IR Inten    --     3.3362                39.4627                32.3704
 Raman Activ --     1.5448                 3.5087                 1.4576

                    88                     89                     90
                     A                      A                      A
 Frequencies --  1313.7675              1325.7866              1327.4971
 Red. masses --     1.3297                 1.1696                 1.2227
 Frc consts  --     1.3522                 1.2112                 1.2696
 IR Inten    --    21.2641                59.3434                16.0487
 Raman Activ --    10.1613                 5.3373                 6.8531

                    91                     92                     93
                     A                      A                      A
 Frequencies --  1338.7923              1341.0160              1352.8174
 Red. masses --     1.2782                 1.2295                 1.1966
 Frc consts  --     1.3498                 1.3027                 1.2902
 IR Inten    --    15.4749                 6.6817                30.6425
 Raman Activ --     3.1861                 4.1960                 4.8854

                    94                     95                     96
                     A                      A                      A
 Frequencies --  1360.1039              1379.8647              1381.8168
 Red. masses --     1.5496                 1.3530                 1.3543
 Frc consts  --     1.6889                 1.5179                 1.5236
 IR Inten    --    10.4926                 4.0302                 3.3475
 Raman Activ --    10.6296                 2.0956                 9.3361

                    97                     98                     99
                     A                      A                      A
 Frequencies --  1384.0225              1387.1154              1409.6073
 Red. masses --     1.4618                 1.2725                 1.2890
 Frc consts  --     1.6498                 1.4425                 1.5090
 IR Inten    --     4.6355                12.6738                19.6806
 Raman Activ --     7.0342                 2.3875                 0.7148

                   100                    101                    102
                     A                      A                      A
 Frequencies --  1439.9087              1446.1912              1448.3230
 Red. masses --     1.3752                 1.4288                 1.1034
 Frc consts  --     1.6799                 1.7607                 1.3637
 IR Inten    --    41.1378                 5.1928                 4.1487
 Raman Activ --     0.8828                 1.2629                 4.9004

                   103                    104                    105
                     A                      A                      A
 Frequencies --  1467.3238              1471.5535              1483.8023
 Red. masses --     1.2975                 1.0938                 1.3484
 Frc consts  --     1.6459                 1.3956                 1.7492
 IR Inten    --    22.5343                 4.5830                49.0532
 Raman Activ --     0.9201                 3.9911                 1.0257

                   106                    107                    108
                     A                      A                      A
 Frequencies --  1488.7534              1517.0473              3251.2301
 Red. masses --     1.2470                 1.3255                 1.0576
 Frc consts  --     1.6285                 1.7973                 6.5865
 IR Inten    --    83.4853                71.5678                30.4477
 Raman Activ --     2.6178                 1.6437                71.6293

                   109                    110                    111
                     A                      A                      A
 Frequencies --  3260.4845              3262.8191              3267.5909
 Red. masses --     1.0735                 1.0650                 1.0824
 Frc consts  --     6.7238                 6.6799                 6.8089
 IR Inten    --     9.4706                40.7303                 8.6254
 Raman Activ --     9.8359               124.5837                51.4861

                   112                    113                    114
                     A                      A                      A
 Frequencies --  3270.3600              3276.6290              3277.8554
 Red. masses --     1.0827                 1.0835                 1.0840
 Frc consts  --     6.8224                 6.8536                 6.8624
 IR Inten    --    10.6062                 3.1278                 7.3576
 Raman Activ --    82.7993               121.6420                89.2840

                   115                    116                    117
                     A                      A                      A
 Frequencies --  3284.5145              3285.8781              3294.5767
 Red. masses --     1.0843                 1.0852                 1.0871
 Frc consts  --     6.8917                 6.9036                 6.9522
 IR Inten    --    16.2579                11.8586                51.9213
 Raman Activ --    78.8091                16.0757                30.0294

                   118                    119                    120
                     A                      A                      A
 Frequencies --  3296.5048              3301.9678              3306.5553
 Red. masses --     1.0867                 1.0846                 1.0719
 Frc consts  --     6.9576                 6.9675                 6.9051
 IR Inten    --    23.6169               126.7203               395.2757
 Raman Activ --    25.4350                27.1382               155.7743

                   121                    122                    123
                     A                      A                      A
 Frequencies --  3312.1696              3319.8931              3351.2440
 Red. masses --     1.1017                 1.1065                 1.0650
 Frc consts  --     7.1211                 7.1856                 7.0468
 IR Inten    --    70.9565                54.4834                49.7282
 Raman Activ --    17.0297                33.1891                81.3193

                   124                    125                    126
                     A                      A                      A
 Frequencies --  3356.4424              3363.7265              3373.4129
 Red. masses --     1.0666                 1.0658                 1.0698
 Frc consts  --     7.0794                 7.1051                 7.1731
 IR Inten    --   243.5541                28.3005                45.9120
 Raman Activ --   126.6185               128.8417               127.0362

                   127                    128                    129
                     A                      A                      A
 Frequencies --  3380.2282              3890.7966              3891.6378
 Red. masses --     1.0678                 1.0675                 1.0676
 Frc consts  --     7.1887                 9.5217                 9.5259
 IR Inten    --    75.7975                82.4712                76.7973
 Raman Activ --   152.1211               103.2347                96.8054

 - Thermochemistry -
 -------------------
 Temperature   298.150 Kelvin.  Pressure   1.00000 Atm.
 Atom     1 has atomic number  8 and mass  15.99491

 Molecular mass:   342.11621 amu.
 Principal axes and moments of inertia in atomic units:
                           1         2         3
     Eigenvalues --  4453.85406********************
           X            0.99997   0.00708  -0.00077
           Y           -0.00708   0.99997   0.00057
           Z            0.00077  -0.00056   1.00000
 This molecule is an asymmetric top.
 Rotational symmetry number  1.
 Warning -- assumption of classical behavior for rotation
           may cause significant error
 Rotational temperatures (Kelvin)      0.01945     0.00684     0.00519
 Rotational constants (GHZ):           0.40521     0.14249     0.10817
    6 imaginary frequencies ignored.
 Zero-point vibrational energy     974604.8 (Joules/Mol)
                                  232.93613 (Kcal/Mol)
 Warning -- explicit consideration of  33 degrees of freedom as
           vibrations may cause significant error
 Vibrational temperatures:     28.93    59.90    94.99   115.81   143.44
          (Kelvin)            149.71   211.15   241.17   253.05   284.01
                              333.63   370.65   397.47   408.88   427.20
                              435.74   450.82   466.47   492.26   499.15
                              541.12   577.59   598.37   613.96   627.14
                              690.06   696.79   729.24   761.19   809.99
                              826.13   859.67   893.07   904.78   950.59
                              971.31   992.37  1011.47  1121.48  1124.85
                             1209.02  1229.03  1292.77  1334.55  1367.09
                             1400.01  1402.10  1409.23  1434.00  1461.81
                             1470.40  1493.00  1526.98  1530.73  1544.14
                             1545.73  1552.86  1571.76  1591.28  1598.58
                             1608.03  1622.86  1636.77  1637.41  1652.59
                             1661.06  1669.47  1684.11  1707.41  1738.85
                             1744.40  1750.60  1778.81  1782.52  1820.52
                             1834.70  1839.55  1849.75  1867.85  1871.01
                             1875.74  1890.22  1907.51  1909.97  1926.22
                             1929.42  1946.40  1956.88  1985.32  1988.12
                             1991.30  1995.75  2028.11  2071.70  2080.74
                             2083.81  2111.15  2117.23  2134.86  2141.98
                             2182.69  4677.79  4691.10  4694.46  4701.33
                             4705.31  4714.33  4716.10  4725.68  4727.64
                             4740.16  4742.93  4750.79  4757.39  4765.47
                             4776.58  4821.69  4829.17  4839.65  4853.58
                             4863.39  5597.98  5599.19

 Zero-point correction=                           0.371207 (Hartree/Particle)
 Thermal correction to Energy=                    0.390607
 Thermal correction to Enthalpy=                  0.391551
 Thermal correction to Gibbs Free Energy=         0.323140
 Sum of electronic and zero-point Energies=          -1297.614708
 Sum of electronic and thermal Energies=             -1297.595309
 Sum of electronic and thermal Enthalpies=           -1297.594365
 Sum of electronic and thermal Free Energies=        -1297.662776

                     E (Thermal)             CV                S
                      KCal/Mol        Cal/Mol-Kelvin    Cal/Mol-Kelvin
 Total                  245.109             78.169            143.984
 Electronic               0.000              0.000              0.000
 Translational            0.889              2.981             43.384
 Rotational               0.889              2.981             35.197
 Vibrational            243.332             72.207             65.402
 Vibration     1          0.593              1.986              6.623
 Vibration     2          0.594              1.981              5.180
 Vibration     3          0.597              1.970              4.269
 Vibration     4          0.600              1.962              3.879
 Vibration     5          0.604              1.949              3.460
 Vibration     6          0.605              1.946              3.377
 Vibration     7          0.617              1.906              2.714
 Vibration     8          0.624              1.882              2.462
 Vibration     9          0.628              1.872              2.372
 Vibration    10          0.637              1.844              2.157
 Vibration    11          0.653              1.792              1.864
 Vibration    12          0.667              1.750              1.678
 Vibration    13          0.678              1.717              1.557
 Vibration    14          0.683              1.703              1.508
 Vibration    15          0.691              1.679              1.434
 Vibration    16          0.694              1.668              1.401
 Vibration    17          0.701              1.648              1.345
 Vibration    18          0.709              1.627              1.289
 Vibration    19          0.721              1.591              1.202
 Vibration    20          0.725              1.582              1.180
 Vibration    21          0.747              1.521              1.055
 Vibration    22          0.767              1.467              0.957
 Vibration    23          0.779              1.436              0.906
 Vibration    24          0.788              1.412              0.869
 Vibration    25          0.796              1.392              0.840
 Vibration    26          0.836              1.295              0.711
 Vibration    27          0.840              1.285              0.699
 Vibration    28          0.862              1.235              0.641
 Vibration    29          0.884              1.186              0.589
 Vibration    30          0.919              1.111              0.518
 Vibration    31          0.930              1.087              0.496
 Vibration    32          0.955              1.037              0.454
 Vibration    33          0.981              0.988              0.415

 Normal termination of Gaussian 09 at Wed Mar 23 05:41:13 2016.
