 Gaussian 09, Revision B.01,
 Gaussian 09:  EM64L-G09RevB.01 12-Aug-2010

 --------------------------------------------------
 # freq=raman b3lyp/6-31+g(2df,p) geom=connectivity
 --------------------------------------------------

 ------------
 290 6000.com
 ------------
 Symbolic Z-matrix:
 Charge =  0 Multiplicity = 1

                         Standard orientation:
 ---------------------------------------------------------------------
 Center     Atomic      Atomic             Coordinates (Angstroms)
 Number     Number       Type             X           Y           Z
 ---------------------------------------------------------------------
      1          8           0       -5.013816   -0.486108    0.475773
      2          6           0       -3.755649   -0.076486   -0.080244
      3          6           0       -3.252161    1.273425    0.403817
      4          8           0       -4.223351    2.217744   -0.070904
      5          1           0       -5.065957    1.982316    0.413500
      6          6           0       -1.842625    1.615595   -0.048993
      7          8           0       -1.228622    2.783476    0.514357
      8          1           0       -0.337964    2.916521    0.079063
      9          6           0       -2.972300   -2.490699   -0.262375
     10          8           0       -4.213216   -3.080966    0.152574
     11          1           0       -4.196416   -4.079237    0.191729
     12          6           0       -2.650404   -1.079938    0.202645
     13          8           0       -1.353245   -0.839608   -0.363152
     14          6           0       -0.921014    0.424372    0.161496
     15          8           0        0.259576    0.579024   -0.638726
     16          6           0        1.544630    0.172434   -0.145935
     17          6           0        2.026125   -1.206135   -0.567225
     18          8           0        1.000024   -2.193312   -0.384778
     19          1           0        0.071543   -1.913291   -0.629034
     20          6           0        3.256016   -1.514895    0.270889
     21          8           0        3.805901   -2.811524   -0.000615
     22          1           0        4.488473   -3.056419    0.688720
     23          6           0        2.339635    2.606743    0.123199
     24          8           0        1.301680    3.301820   -0.584897
     25          1           0        1.392491    4.280327   -0.401375
     26          6           0        2.624997    1.209648   -0.402089
     27          8           0        3.883703    0.895488    0.211235
     28          6           0        4.305454   -0.455389   -0.024717
     29          8           0        5.373303   -0.607754    0.922087
     30          1           0       -5.593522   -0.783678   -0.229204
     31          1           0        6.182596   -0.834143    0.457983
     32          1           0        4.675289   -0.562449   -1.023046
     33          1           0       -3.876608   -0.016012   -1.141664
     34          1           0       -3.271615    1.277219    1.473634
     35          1           0       -2.528669   -1.115897    1.265089
     36          1           0       -2.182693   -3.129431    0.074437
     37          1           0       -0.659575    0.330016    1.194766
     38          1           0       -1.895991    1.780728   -1.104826
     39          1           0        1.437752    0.124234    0.917622
     40          1           0        2.304690   -1.178708   -1.599964
     41          1           0        2.991532   -1.461255    1.306298
     42          1           0        2.775803    1.275451   -1.459362
     43          1           0        3.238688    3.183388    0.059289
     44          1           0        2.056198    2.530947    1.152188
     45          1           0       -2.957767   -2.488896   -1.332275
 ---------------------------------------------------------------------

 SCF Done:  E(RB3LYP) =  -1298.01773901     A.U. after   13 cycles

 The electronic state is 1-A.
 Alpha  occ. eigenvalues --  -19.19023 -19.18573 -19.17825 -19.17397 -19.17285
 Alpha  occ. eigenvalues --  -19.16847 -19.16223 -19.15831 -19.15174 -19.14511
 Alpha  occ. eigenvalues --  -19.13492 -10.30572 -10.30127 -10.25633 -10.25442
 Alpha  occ. eigenvalues --  -10.25073 -10.25048 -10.24925 -10.24924 -10.24922
 Alpha  occ. eigenvalues --  -10.24720 -10.24569 -10.23809  -1.10274  -1.08837
 Alpha  occ. eigenvalues --   -1.05176  -1.04946  -1.03499  -1.03188  -1.02442
 Alpha  occ. eigenvalues --   -1.02044  -1.01884  -1.00841  -0.99910  -0.82152
 Alpha  occ. eigenvalues --   -0.80752  -0.79488  -0.78134  -0.71555  -0.69889
 Alpha  occ. eigenvalues --   -0.67473  -0.64720  -0.63109  -0.62411  -0.61373
 Alpha  occ. eigenvalues --   -0.60164  -0.56117  -0.55609  -0.54896  -0.54608
 Alpha  occ. eigenvalues --   -0.54343  -0.53307  -0.52680  -0.51833  -0.51400
 Alpha  occ. eigenvalues --   -0.50515  -0.50139  -0.49239  -0.48423  -0.46590
 Alpha  occ. eigenvalues --   -0.45601  -0.44859  -0.44574  -0.43836  -0.43211
 Alpha  occ. eigenvalues --   -0.42127  -0.41992  -0.41494  -0.40499  -0.39805
 Alpha  occ. eigenvalues --   -0.38948  -0.37704  -0.37262  -0.35843  -0.35379
 Alpha  occ. eigenvalues --   -0.35061  -0.34807  -0.33978  -0.33530  -0.32923
 Alpha  occ. eigenvalues --   -0.32616  -0.31546  -0.30777  -0.30438  -0.29917
 Alpha  occ. eigenvalues --   -0.29408  -0.28644  -0.28458  -0.28120  -0.26689
 Alpha  occ. eigenvalues --   -0.26518
 Alpha virt. eigenvalues --   -0.01659  -0.01530  -0.01334  -0.00081   0.00445
 Alpha virt. eigenvalues --    0.01029   0.01894   0.02166   0.02809   0.03297
 Alpha virt. eigenvalues --    0.03597   0.04180   0.04633   0.05416   0.05724

 Mulliken atomic charges:
              1
     1  O   -0.429922
     2  C   -0.046898
     3  C    0.028668
     4  O   -0.451552
     5  H    0.348872
     6  C   -0.294171
     7  O   -0.489006
     8  H    0.439475
     9  C   -0.340444
    10  O   -0.495818
    11  H    0.358827
    12  C    0.061307
    13  O   -0.029295
    14  C    0.074023
    15  O   -0.070962
    16  C    0.243800
    17  C   -0.147683
    18  O   -0.455477
    19  H    0.403093
    20  C   -0.060626
    21  O   -0.452726
    22  H    0.348754
    23  C   -0.292268
    24  O   -0.490996
    25  H    0.365198
    26  C   -0.284887
    27  O   -0.022512
    28  C    0.050993
    29  O   -0.479565
    30  H    0.359054
    31  H    0.346385
    32  H    0.134612
    33  H    0.130691
    34  H    0.135861
    35  H    0.115110
    36  H    0.150388
    37  H    0.133957
    38  H    0.144805
    39  H    0.104696
    40  H    0.124816
    41  H    0.136685
    42  H    0.131509
    43  H    0.153601
    44  H    0.160275
    45  H    0.149350
 Sum of Mulliken atomic charges =   0.00000

 Dipole moment (field-independent basis, Debye):
    X=              2.0042    Y=             -0.4124    Z=             -0.5657  Tot=              2.1230
 Quadrupole moment (field-independent basis, Debye-Ang):
   XX=           -119.9738   YY=           -134.9651   ZZ=           -139.3782
   XY=             14.1645   XZ=              0.5363   YZ=             -1.6659

  Exact polarizability: 233.863  -1.057 197.435   1.152   0.278 144.722
 Approx polarizability: 275.372  -0.301 256.895   0.970  -0.102 241.234

 ******    7 imaginary frequencies (negative Signs) ******

                     1                      2                      3
                     A                      A                      A
 Frequencies --  -284.5007              -248.6051              -212.3872
 Red. masses --     1.3937                 1.3337                 1.8568
 Frc consts  --     0.0665                 0.0486                 0.0493
 IR Inten    --    62.3249                50.7284                 7.2547
 Raman Activ --     0.3406                 0.4016                 0.0963

                     4                      5                      6
                     A                      A                      A
 Frequencies --  -195.9801               -68.8210               -47.5605
 Red. masses --     1.1860                 6.8302                 6.1795
 Frc consts  --     0.0268                 0.0191                 0.0082
 IR Inten    --   105.1087                 1.0023                 0.2961
 Raman Activ --     0.7897                 0.0407                 0.0779

                     7                      8                      9
                     A                      A                      A
 Frequencies --    -9.4095                60.1665                73.5033
 Red. masses --     6.5208                 6.6959                 6.9186
 Frc consts  --     0.0003                 0.0143                 0.0220
 IR Inten    --     2.4315                 1.1154                 0.7033
 Raman Activ --     0.0190                 0.0284                 0.1237

                    10                     11                     12
                     A                      A                      A
 Frequencies --    92.4996               101.4623               114.9238
 Red. masses --     6.3332                 6.6205                 5.8877
 Frc consts  --     0.0319                 0.0402                 0.0458
 IR Inten    --     2.3370                 1.4608                 6.7240
 Raman Activ --     0.2424                 0.2037                 0.1392

                    13                     14                     15
                     A                      A                      A
 Frequencies --   149.0708               164.4938               199.6869
 Red. masses --     5.9268                 6.6748                 6.8481
 Frc consts  --     0.0776                 0.1064                 0.1609
 IR Inten    --     7.2029                 0.5672                 0.0441
 Raman Activ --     0.2455                 0.3888                 2.1294

                    16                     17                     18
                     A                      A                      A
 Frequencies --   206.6039               230.1498               266.0958
 Red. masses --     6.1754                 5.8696                 5.1374
 Frc consts  --     0.1553                 0.1832                 0.2143
 IR Inten    --     0.0227                 1.1412                 9.1022
 Raman Activ --     0.3484                 1.0989                 0.5086

                    19                     20                     21
                     A                      A                      A
 Frequencies --   280.6047               294.5880               301.6942
 Red. masses --     5.0651                 5.8131                 5.7664
 Frc consts  --     0.2350                 0.2972                 0.3092
 IR Inten    --     2.9348                 2.2341                 6.1707
 Raman Activ --     0.0897                 0.1910                 0.1899

                    22                     23                     24
                     A                      A                      A
 Frequencies --   311.5064               318.4864               325.5985
 Red. masses --     5.2588                 5.2278                 6.7265
 Frc consts  --     0.3007                 0.3124                 0.4201
 IR Inten    --     7.8237                 2.8859                 9.2109
 Raman Activ --     0.2016                 1.5969                 2.4947

                    25                     26                     27
                     A                      A                      A
 Frequencies --   336.0000               354.5210               375.8868
 Red. masses --     6.1999                 4.6985                 5.8851
 Frc consts  --     0.4124                 0.3479                 0.4899
 IR Inten    --     5.8507                 6.6813                 1.0060
 Raman Activ --     4.5021                 0.0824                 0.8317

                    28                     29                     30
                     A                      A                      A
 Frequencies --   402.2753               409.3080               428.5516
 Red. masses --     4.3588                 6.1765                 4.3186
 Frc consts  --     0.4156                 0.6097                 0.4673
 IR Inten    --    16.4078                 4.4229                 1.3401
 Raman Activ --     3.6243                 4.1043                 3.3700

                    31                     32                     33
                     A                      A                      A
 Frequencies --   438.2277               475.5624               485.8496
 Red. masses --     6.3524                 4.0378                 3.9695
 Frc consts  --     0.7188                 0.5380                 0.5521
 IR Inten    --     2.3240                 3.8094                12.3818
 Raman Activ --     5.0553                 1.5463                 1.2788

                    34                     35                     36
                     A                      A                      A
 Frequencies --   503.1366               519.8112               554.8489
 Red. masses --     4.1453                 3.4728                 3.6080
 Frc consts  --     0.6183                 0.5529                 0.6544
 IR Inten    --     9.9004                 7.3590                24.0755
 Raman Activ --     1.2243                 6.2396                 1.3721

                    37                     38                     39
                     A                      A                      A
 Frequencies --   576.1517               594.4703               613.8669
 Red. masses --     2.6903                 6.5102                 3.9752
 Frc consts  --     0.5262                 1.3555                 0.8826
 IR Inten    --    29.4245                 2.6733                 2.6908
 Raman Activ --     0.3060                 0.8055                 0.3663

                    40                     41                     42
                     A                      A                      A
 Frequencies --   631.1903               659.8660               699.9771
 Red. masses --     4.4976                 1.1213                 4.7525
 Frc consts  --     1.0557                 0.2877                 1.3720
 IR Inten    --    44.8066               108.4405                11.3614
 Raman Activ --     1.1496                 1.6929                 2.7455

                    43                     44                     45
                     A                      A                      A
 Frequencies --   711.4734               725.4135               746.2055
 Red. masses --     1.0775                 1.0786                 1.1089
 Frc consts  --     0.3214                 0.3344                 0.3638
 IR Inten    --   164.5972                75.7471               102.6570
 Raman Activ --     2.9176                 2.1020                 1.4659

                    46                     47                     48
                     A                      A                      A
 Frequencies --   763.6324               848.4869               851.6930
 Red. masses --     1.0793                 1.6255                 1.5605
 Frc consts  --     0.3708                 0.6895                 0.6669
 IR Inten    --   141.4140                 3.0010                15.6996
 Raman Activ --     1.9419                 1.2154                 0.3178

                    49                     50                     51
                     A                      A                      A
 Frequencies --   882.8710               925.0828               960.9685
 Red. masses --     1.2195                 5.7975                 6.2222
 Frc consts  --     0.5601                 2.9231                 3.3854
 IR Inten    --    49.0542                73.9435               133.7223
 Raman Activ --     0.2868                 3.2760                 1.1337

                    52                     53                     54
                     A                      A                      A
 Frequencies --   971.5646               977.0302               989.6121
 Red. masses --     6.1377                 5.4873                 5.2090
 Frc consts  --     3.4135                 3.0862                 3.0056
 IR Inten    --    84.2031               115.7140               146.6634
 Raman Activ --     1.1551                 0.9391                 0.8437

                    55                     56                     57
                     A                      A                      A
 Frequencies --   995.9744              1014.4963              1024.4168
 Red. masses --     5.3689                 5.6076                 5.7534
 Frc consts  --     3.1378                 3.4004                 3.5574
 IR Inten    --   225.6247                26.2712               131.9114
 Raman Activ --     1.9813                 1.4998                 4.1082

                    58                     59                     60
                     A                      A                      A
 Frequencies --  1045.8615              1054.6815              1061.8426
 Red. masses --     5.3382                 5.0634                 4.5583
 Frc consts  --     3.4403                 3.3184                 3.0281
 IR Inten    --   277.4926               130.7442                53.3328
 Raman Activ --     3.6957                 9.9470                 4.7376

                    61                     62                     63
                     A                      A                      A
 Frequencies --  1069.6129              1076.1926              1076.3838
 Red. masses --     4.5086                 5.7300                 3.0049
 Frc consts  --     3.0391                 3.9100                 2.0512
 IR Inten    --    78.5287                51.2984                 5.3846
 Raman Activ --     4.9631                 1.2661                13.5087

                    64                     65                     66
                     A                      A                      A
 Frequencies --  1092.7451              1097.5320              1105.5321
 Red. masses --     2.6710                 2.6026                 2.3061
 Frc consts  --     1.8792                 1.8471                 1.6606
 IR Inten    --    38.3645                81.5681                27.3174
 Raman Activ --    19.7711                 2.2398                 4.7472

                    67                     68                     69
                     A                      A                      A
 Frequencies --  1112.3745              1134.9696              1135.9418
 Red. masses --     3.5467                 2.6986                 3.0274
 Frc consts  --     2.5857                 2.0481                 2.3016
 IR Inten    --    32.6681                 1.2378                18.7005
 Raman Activ --     8.1958                 1.9430                 2.6378

                    70                     71                     72
                     A                      A                      A
 Frequencies --  1146.8275              1154.4776              1158.3896
 Red. masses --     2.5793                 1.8487                 2.4772
 Frc consts  --     1.9987                 1.4517                 1.9585
 IR Inten    --    43.1215                 4.3732                32.0549
 Raman Activ --     6.0320                 2.8067                 2.0472

                    73                     74                     75
                     A                      A                      A
 Frequencies --  1167.6013              1173.3574              1190.9109
 Red. masses --     1.7644                 1.8846                 1.6639
 Frc consts  --     1.4172                 1.5287                 1.3904
 IR Inten    --    23.3413                 3.8337                 1.9251
 Raman Activ --     6.5445                 2.1811                 2.6032

                    76                     77                     78
                     A                      A                      A
 Frequencies --  1202.4711              1208.8061              1221.6401
 Red. masses --     1.3671                 1.2519                 1.2138
 Frc consts  --     1.1647                 1.0778                 1.0673
 IR Inten    --    15.7619                10.8181                 0.2124
 Raman Activ --     2.3630                 1.2960                 1.5224

                    79                     80                     81
                     A                      A                      A
 Frequencies --  1230.2282              1237.2254              1250.3254
 Red. masses --     1.2437                 1.2157                 1.3043
 Frc consts  --     1.1090                 1.0964                 1.2014
 IR Inten    --     7.1475                16.6215                 6.9831
 Raman Activ --     1.2833                 2.0876                 1.2383

                    82                     83                     84
                     A                      A                      A
 Frequencies --  1269.2664              1272.0630              1277.8301
 Red. masses --     1.3054                 1.2158                 1.2151
 Frc consts  --     1.2391                 1.1591                 1.1690
 IR Inten    --    32.3041                18.5538                 9.8048
 Raman Activ --     3.0475                 1.6530                 1.4977

                    85                     86                     87
                     A                      A                      A
 Frequencies --  1287.3897              1293.4334              1296.3722
 Red. masses --     1.3251                 1.3848                 1.2972
 Frc consts  --     1.2940                 1.3649                 1.2844
 IR Inten    --     1.7824                13.6801                42.7136
 Raman Activ --     2.2794                 4.1344                 4.0793

                    88                     89                     90
                     A                      A                      A
 Frequencies --  1309.5007              1316.2948              1321.5008
 Red. masses --     1.1872                 1.2961                 1.2301
 Frc consts  --     1.1995                 1.3231                 1.2656
 IR Inten    --    13.6577                41.1537                23.0292
 Raman Activ --     5.0437                 3.5999                 3.4658

                    91                     92                     93
                     A                      A                      A
 Frequencies --  1327.0755              1331.0095              1334.6928
 Red. masses --     1.2844                 1.2307                 1.3405
 Frc consts  --     1.3327                 1.2846                 1.4069
 IR Inten    --    21.4657                17.3946                57.8127
 Raman Activ --     9.5280                 4.1500                 2.9071

                    94                     95                     96
                     A                      A                      A
 Frequencies --  1346.6470              1363.9415              1371.7868
 Red. masses --     1.2105                 1.5265                 1.5546
 Frc consts  --     1.2934                 1.6731                 1.7237
 IR Inten    --    13.3541                 5.7696                 6.7347
 Raman Activ --     2.8410                 3.7902                 8.8834

                    97                     98                     99
                     A                      A                      A
 Frequencies --  1381.5193              1393.9335              1396.6958
 Red. masses --     1.5398                 1.3679                 1.3001
 Frc consts  --     1.7315                 1.5660                 1.4943
 IR Inten    --     4.8330                 3.5704                 6.9511
 Raman Activ --     5.4413                 1.5610                12.2373

                   100                    101                    102
                     A                      A                      A
 Frequencies --  1410.3593              1428.4644              1433.5091
 Red. masses --     1.3015                 1.4492                 1.4280
 Frc consts  --     1.5254                 1.7423                 1.7289
 IR Inten    --    18.5681                13.1094                35.7283
 Raman Activ --     1.1854                 1.5327                 2.1051

                   103                    104                    105
                     A                      A                      A
 Frequencies --  1452.9383              1462.5633              1464.9035
 Red. masses --     1.3750                 1.3176                 1.0830
 Frc consts  --     1.7102                 1.6606                 1.3693
 IR Inten    --    40.4679                14.1723                 3.4124
 Raman Activ --     1.3893                 1.3372                 3.5117

                   106                    107                    108
                     A                      A                      A
 Frequencies --  1467.1517              1490.5371              3236.6763
 Red. masses --     1.0815                 1.3083                 1.0691
 Frc consts  --     1.3716                 1.7126                 6.5986
 IR Inten    --     4.4399                38.9366               658.7919
 Raman Activ --     4.1531                 1.6979               151.9134

                   109                    110                    111
                     A                      A                      A
 Frequencies --  3253.8519              3257.9813              3260.7279
 Red. masses --     1.0579                 1.0800                 1.0803
 Frc consts  --     6.5990                 6.7543                 6.7674
 IR Inten    --    38.9809                13.1009                29.8680
 Raman Activ --    99.3514                52.7465                22.7884

                   112                    113                    114
                     A                      A                      A
 Frequencies --  3261.9483              3267.0937              3270.2314
 Red. masses --     1.0621                 1.0793                 1.0811
 Frc consts  --     6.6585                 6.7876                 6.8122
 IR Inten    --    48.1830                42.4741                 5.2862
 Raman Activ --   185.8199                64.7428               119.6264

                   115                    116                    117
                     A                      A                      A
 Frequencies --  3277.1521              3278.4257              3281.8871
 Red. masses --     1.0827                 1.0833                 1.0846
 Frc consts  --     6.8507                 6.8601                 6.8829
 IR Inten    --    13.8571                46.6459                 1.2963
 Raman Activ --    17.7791                95.3096                98.1072

                   118                    119                    120
                     A                      A                      A
 Frequencies --  3284.3665              3295.0109              3297.5775
 Red. masses --     1.0848                 1.0802                 1.0855
 Frc consts  --     6.8948                 6.9096                 6.9543
 IR Inten    --    11.1949               334.1495               106.9712
 Raman Activ --    24.3657                54.7333                36.8742

                   121                    122                    123
                     A                      A                      A
 Frequencies --  3301.2626              3309.7743              3320.9909
 Red. masses --     1.0786                 1.1047                 1.1076
 Frc consts  --     6.9255                 7.1298                 7.1970
 IR Inten    --   296.2746                74.3348                37.0880
 Raman Activ --    71.2953                38.3448                43.2922

                   124                    125                    126
                     A                      A                      A
 Frequencies --  3354.4208              3360.1414              3364.5819
 Red. masses --     1.0665                 1.0654                 1.0688
 Frc consts  --     7.0707                 7.0874                 7.1288
 IR Inten    --    47.4271                40.0434                47.0130
 Raman Activ --   140.3403                99.7062               193.9669

                   127                    128                    129
                     A                      A                      A
 Frequencies --  3365.3763              3877.2301              3878.7425
 Red. masses --     1.0672                 1.0674                 1.0676
 Frc consts  --     7.1215                 9.4539                 9.4630
 IR Inten    --    52.5035                75.8087                88.8804
 Raman Activ --   143.8542               116.5366                84.9468

 - Thermochemistry -
 -------------------
 Temperature   298.150 Kelvin.  Pressure   1.00000 Atm.
 Atom     1 has atomic number  8 and mass  15.99491

 Molecular mass:   342.11621 amu.
 Principal axes and moments of inertia in atomic units:
                           1         2         3
     Eigenvalues --  4417.44871********************
           X            0.99997   0.00732   0.00014
           Y           -0.00732   0.99997   0.00122
           Z           -0.00013  -0.00122   1.00000
 This molecule is an asymmetric top.
 Rotational symmetry number  1.
 Warning -- assumption of classical behavior for rotation
           may cause significant error
 Rotational temperatures (Kelvin)      0.01961     0.00706     0.00535
 Rotational constants (GHZ):           0.40855     0.14713     0.11155
    7 imaginary frequencies ignored.
 Zero-point vibrational energy     971979.7 (Joules/Mol)
                                  232.30873 (Kcal/Mol)
 Warning -- explicit consideration of  32 degrees of freedom as
           vibrations may cause significant error
 Vibrational temperatures:     86.57   105.75   133.09   145.98   165.35
          (Kelvin)            214.48   236.67   287.30   297.26   331.13
                              382.85   403.73   423.85   434.07   448.19
                              458.23   468.46   483.43   510.08   540.82
                              578.78   588.90   616.59   630.51   684.23
                              699.03   723.90   747.89   798.30   828.95
                              855.31   883.22   908.14   949.40  1007.11
                             1023.65  1043.71  1073.62  1098.70  1220.78
                             1225.39  1270.25  1330.99  1382.62  1397.86
                             1405.73  1423.83  1432.98  1459.63  1473.91
                             1504.76  1517.45  1527.75  1538.93  1548.40
                             1548.67  1572.21  1579.10  1590.61  1600.46
                             1632.97  1634.36  1650.03  1661.03  1666.66
                             1679.92  1688.20  1713.45  1730.09  1739.20
                             1757.67  1770.02  1780.09  1798.94  1826.19
                             1830.21  1838.51  1852.26  1860.96  1865.19
                             1884.08  1893.85  1901.34  1909.36  1915.02
                             1920.32  1937.52  1962.41  1973.69  1987.70
                             2005.56  2009.53  2029.19  2055.24  2062.50
                             2090.45  2104.30  2107.67  2110.90  2144.55
                             4656.85  4681.56  4687.50  4691.45  4693.21
                             4700.61  4705.13  4715.09  4716.92  4721.90
                             4725.46  4740.78  4744.47  4749.77  4762.02
                             4778.16  4826.26  4834.49  4840.88  4842.02
                             5578.46  5580.64

 Zero-point correction=                           0.370208 (Hartree/Particle)
 Thermal correction to Energy=                    0.388521
 Thermal correction to Enthalpy=                  0.389465
 Thermal correction to Gibbs Free Energy=         0.325154
 Sum of electronic and zero-point Energies=          -1297.647531
 Sum of electronic and thermal Energies=             -1297.629218
 Sum of electronic and thermal Enthalpies=           -1297.628274
 Sum of electronic and thermal Free Energies=        -1297.692585

                     E (Thermal)             CV                S
                      KCal/Mol        Cal/Mol-Kelvin    Cal/Mol-Kelvin
 Total                  243.800             76.169            135.354
 Electronic               0.000              0.000              0.000
 Translational            0.889              2.981             43.384
 Rotational               0.889              2.981             35.126
 Vibrational            242.023             70.207             56.843
 Vibration     1          0.597              1.973              4.452
 Vibration     2          0.599              1.967              4.057
 Vibration     3          0.602              1.955              3.607
 Vibration     4          0.604              1.948              3.426
 Vibration     5          0.608              1.937              3.184
 Vibration     6          0.618              1.904              2.684
 Vibration     7          0.623              1.886              2.497
 Vibration     8          0.638              1.840              2.136
 Vibration     9          0.641              1.830              2.073
 Vibration    10          0.652              1.795              1.878
 Vibration    11          0.672              1.735              1.621
 Vibration    12          0.680              1.709              1.530
 Vibration    13          0.689              1.684              1.447
 Vibration    14          0.694              1.670              1.407
 Vibration    15          0.700              1.652              1.354
 Vibration    16          0.705              1.638              1.318
 Vibration    17          0.710              1.624              1.282
 Vibration    18          0.717              1.604              1.231
 Vibration    19          0.730              1.566              1.146
 Vibration    20          0.747              1.521              1.056
 Vibration    21          0.768              1.465              0.954
 Vibration    22          0.774              1.450              0.929
 Vibration    23          0.790              1.408              0.863
 Vibration    24          0.798              1.387              0.832
 Vibration    25          0.832              1.304              0.722
 Vibration    26          0.842              1.281              0.694
 Vibration    27          0.858              1.243              0.650
 Vibration    28          0.875              1.206              0.610
 Vibration    29          0.910              1.129              0.534
 Vibration    30          0.933              1.083              0.493
 Vibration    31          0.952              1.044              0.459
 Vibration    32          0.973              1.003              0.426

 Normal termination of Gaussian 09 at Fri Feb 12 12:54:06 2016.
