 Gaussian 09, Revision B.01,
 Gaussian 09:  EM64L-G09RevB.01 12-Aug-2010

 -------------------------------------------------
 # freq=raman b3lyp/6-31+g(2d,p) geom=connectivity
 -------------------------------------------------

 -----------------
 473 8748/8748.com
 -----------------
 Symbolic Z-matrix:
 Charge =  0 Multiplicity = 1

                         Standard orientation:
 ---------------------------------------------------------------------
 Center     Atomic      Atomic             Coordinates (Angstroms)
 Number     Number       Type             X           Y           Z
 ---------------------------------------------------------------------
      1          8           0       -5.052954   -0.233615    0.478665
      2          6           0       -3.768098   -0.103943   -0.146046
      3          6           0       -3.202481    1.248466    0.256356
      4          8           0       -4.046359    2.335565   -0.149969
      5          1           0       -4.953503    1.914741   -0.150329
      6          6           0       -1.819355    1.570706   -0.285617
      7          8           0       -1.299342    2.787335    0.269224
      8          1           0       -0.338603    2.882165    0.009938
      9          6           0       -3.136030   -2.606125   -0.112058
     10          8           0       -4.353732   -3.187680    0.374386
     11          1           0       -4.260923   -4.176355    0.261526
     12          6           0       -2.758897   -1.175437    0.236055
     13          8           0       -1.478895   -0.855899   -0.328746
     14          6           0       -0.920304    0.400606    0.080214
     15          8           0        0.302264    0.574118   -0.652178
     16          6           0        1.541819    0.201776   -0.032173
     17          6           0        2.010060   -1.161226   -0.514491
     18          8           0        1.032505   -2.150356   -0.160416
     19          1           0        0.121288   -1.843630   -0.435321
     20          6           0        3.315287   -1.599099    0.131085
     21          8           0        3.870454   -2.765222   -0.495458
     22          1           0        4.685174   -3.022036    0.023860
     23          6           0        2.389283    2.601587    0.127687
     24          8           0        1.328211    3.491124   -0.251183
     25          1           0        1.432346    4.469313   -0.074728
     26          6           0        2.689147    1.168788   -0.278658
     27          8           0        3.829631    0.779794    0.501449
     28          6           0        4.330199   -0.473861    0.017591
     29          8           0        5.456423   -0.693898    0.879527
     30          1           0        6.241961   -0.842390    0.348038
     31          1           0        4.657353   -0.372732   -0.996136
     32          1           0        3.139985   -1.808580    1.165631
     33          1           0        2.127763   -1.141532   -1.577815
     34          1           0        1.378570    0.143096    1.023671
     35          1           0        2.949545    1.145965   -1.316238
     36          1           0        3.280690    3.136359   -0.125908
     37          1           0        2.327668    2.562240    1.195186
     38          1           0       -2.335363   -3.230800    0.225007
     39          1           0       -3.164102   -2.670540   -1.179748
     40          1           0       -5.732206   -0.297217   -0.196740
     41          1           0       -2.650979   -1.133905    1.299788
     42          1           0       -3.899715   -0.119854   -1.207801
     43          1           0       -3.142818    1.265903    1.324549
     44          1           0       -1.868441    1.660050   -1.350750
     45          1           0       -0.725108    0.396185    1.132249
 ---------------------------------------------------------------------

 SCF Done:  E(RB3LYP) =  -1297.98784963     A.U. after   13 cycles

 The electronic state is 1-A.
 Alpha  occ. eigenvalues --  -19.18899 -19.18469 -19.18295 -19.18017 -19.18008
 Alpha  occ. eigenvalues --  -19.17505 -19.16648 -19.16594 -19.14762 -19.13854
 Alpha  occ. eigenvalues --  -19.13243 -10.30572 -10.30512 -10.26620 -10.26201
 Alpha  occ. eigenvalues --  -10.25543 -10.25470 -10.25155 -10.24916 -10.24533
 Alpha  occ. eigenvalues --  -10.24387 -10.23676 -10.23593  -1.10027  -1.09506
 Alpha  occ. eigenvalues --   -1.05757  -1.04714  -1.04175  -1.03747  -1.03114
 Alpha  occ. eigenvalues --   -1.02872  -1.01896  -1.00680  -0.99653  -0.82381
 Alpha  occ. eigenvalues --   -0.80379  -0.79454  -0.78392  -0.72186  -0.70238
 Alpha  occ. eigenvalues --   -0.67359  -0.64934  -0.63293  -0.62672  -0.61585
 Alpha  occ. eigenvalues --   -0.60293  -0.56491  -0.55813  -0.55373  -0.54826
 Alpha  occ. eigenvalues --   -0.54252  -0.53293  -0.52832  -0.52304  -0.51322
 Alpha  occ. eigenvalues --   -0.50564  -0.49957  -0.49462  -0.48748  -0.46599
 Alpha  occ. eigenvalues --   -0.45915  -0.45331  -0.44654  -0.43796  -0.43380
 Alpha  occ. eigenvalues --   -0.42750  -0.41911  -0.40947  -0.40260  -0.39391
 Alpha  occ. eigenvalues --   -0.38949  -0.38170  -0.36668  -0.36369  -0.35960
 Alpha  occ. eigenvalues --   -0.35397  -0.35101  -0.34898  -0.33566  -0.33407
 Alpha  occ. eigenvalues --   -0.32814  -0.31490  -0.30773  -0.30396  -0.29960
 Alpha  occ. eigenvalues --   -0.29803  -0.28946  -0.28753  -0.27375  -0.26626
 Alpha  occ. eigenvalues --   -0.26417
 Alpha virt. eigenvalues --   -0.02153  -0.02109  -0.01892  -0.00606   0.00223
 Alpha virt. eigenvalues --    0.01149   0.01807   0.02457   0.03132   0.03651
 Alpha virt. eigenvalues --    0.03975   0.04521   0.04751   0.05227   0.05536

 Mulliken atomic charges:
              1
     1  O   -0.525512
     2  C   -0.215932
     3  C    0.322442
     4  O   -0.551465
     5  H    0.328262
     6  C   -0.007276
     7  O   -0.574946
     8  H    0.417193
     9  C   -0.235875
    10  O   -0.508012
    11  H    0.338829
    12  C    0.185567
    13  O   -0.271685
    14  C    0.262395
    15  O   -0.249568
    16  C    0.166344
    17  C    0.140816
    18  O   -0.566011
    19  H    0.379805
    20  C    0.088212
    21  O   -0.536894
    22  H    0.334813
    23  C   -0.354105
    24  O   -0.589476
    25  H    0.366983
    26  C    0.027715
    27  O   -0.231982
    28  C    0.084484
    29  O   -0.539733
    30  H    0.333986
    31  H    0.130247
    32  H    0.138906
    33  H    0.125480
    34  H    0.115875
    35  H    0.121813
    36  H    0.143573
    37  H    0.154778
    38  H    0.148585
    39  H    0.142185
    40  H    0.341222
    41  H    0.113313
    42  H    0.123791
    43  H    0.122890
    44  H    0.129724
    45  H    0.128245
 Sum of Mulliken atomic charges =   0.00000

 Dipole moment (field-independent basis, Debye):
    X=              2.5439    Y=             -0.9755    Z=             -1.9523  Tot=              3.3518
 Quadrupole moment (field-independent basis, Debye-Ang):
   XX=           -115.9142   YY=           -135.8085   ZZ=           -141.3137
   XY=             16.4937   XZ=              3.3731   YZ=             -1.1922

  Exact polarizability: 233.361  -1.544 199.162   0.826   0.054 143.827
 Approx polarizability: 274.059  -1.342 258.740   0.850  -0.572 239.384

 ******    7 imaginary frequencies (negative Signs) ******

                     1                      2                      3
                     A                      A                      A
 Frequencies --  -365.5197              -301.4148              -225.3233
 Red. masses --     1.6829                 1.7357                 1.2025
 Frc consts  --     0.1325                 0.0929                 0.0360
 IR Inten    --     5.6688                 3.5130               104.9822
 Raman Activ --     0.0136                 0.0617                 0.7650

                     4                      5                      6
                     A                      A                      A
 Frequencies --  -184.8067               -63.2445               -49.0006
 Red. masses --     1.2820                 6.7001                 6.2227
 Frc consts  --     0.0258                 0.0158                 0.0088
 IR Inten    --   105.7456                 0.4186                 1.1252
 Raman Activ --     0.7411                 0.0320                 0.0296

                     7                      8                      9
                     A                      A                      A
 Frequencies --    -7.3157                51.9297                69.8294
 Red. masses --     5.9227                 6.8377                 6.7113
 Frc consts  --     0.0002                 0.0109                 0.0193
 IR Inten    --     1.6882                 1.0037                 0.6372
 Raman Activ --     0.0344                 0.0587                 0.0364

                    10                     11                     12
                     A                      A                      A
 Frequencies --    78.4928                86.2968               123.0421
 Red. masses --     6.3911                 6.9119                 5.9637
 Frc consts  --     0.0232                 0.0303                 0.0532
 IR Inten    --     2.1535                 0.7723                 1.9822
 Raman Activ --     0.2395                 0.0323                 0.0577

                    13                     14                     15
                     A                      A                      A
 Frequencies --   146.5027               172.4040               186.6804
 Red. masses --     6.3012                 7.1926                 6.2804
 Frc consts  --     0.0797                 0.1260                 0.1290
 IR Inten    --     4.4538                 0.4073                 3.0543
 Raman Activ --     0.3973                 0.3621                 1.0663

                    16                     17                     18
                     A                      A                      A
 Frequencies --   201.3126               225.7492               253.9916
 Red. masses --     6.6706                 6.4101                 4.2588
 Frc consts  --     0.1593                 0.1925                 0.1619
 IR Inten    --     0.1457                 3.3426                18.0635
 Raman Activ --     1.1859                 1.7120                 0.1784

                    19                     20                     21
                     A                      A                      A
 Frequencies --   279.9270               295.0015               303.9274
 Red. masses --     5.1187                 4.0789                 5.0271
 Frc consts  --     0.2363                 0.2091                 0.2736
 IR Inten    --     3.1232                 1.2814                 4.2651
 Raman Activ --     0.4144                 0.4364                 1.0013

                    22                     23                     24
                     A                      A                      A
 Frequencies --   307.4779               314.6254               321.2071
 Red. masses --     6.1681                 6.3064                 4.4094
 Frc consts  --     0.3436                 0.3678                 0.2680
 IR Inten    --     4.5011                 4.5040                 0.6783
 Raman Activ --     1.9322                 3.0628                 3.3630

                    25                     26                     27
                     A                      A                      A
 Frequencies --   341.5083               364.1548               372.5109
 Red. masses --     6.8379                 4.5705                 6.6254
 Frc consts  --     0.4699                 0.3571                 0.5417
 IR Inten    --     4.1611                 2.6792                 3.4434
 Raman Activ --     1.7823                 0.1892                 1.3266

                    28                     29                     30
                     A                      A                      A
 Frequencies --   407.4826               416.5978               433.0559
 Red. masses --     4.0383                 6.3707                 5.2972
 Frc consts  --     0.3951                 0.6514                 0.5853
 IR Inten    --    23.1382                 3.3606                 1.3870
 Raman Activ --     2.4420                 6.1565                 2.5622

                    31                     32                     33
                     A                      A                      A
 Frequencies --   436.9511               471.8344               485.0194
 Red. masses --     4.5029                 4.4818                 4.7529
 Frc consts  --     0.5065                 0.5879                 0.6588
 IR Inten    --     3.5185                 4.7169                17.9470
 Raman Activ --     0.6598                 4.3158                 0.1804

                    34                     35                     36
                     A                      A                      A
 Frequencies --   516.2628               525.0350               563.6181
 Red. masses --     3.5207                 3.0978                 1.9310
 Frc consts  --     0.5529                 0.5031                 0.3614
 IR Inten    --    23.9455                 6.5805                44.5625
 Raman Activ --     2.1048                 4.3581                 1.5578

                    37                     38                     39
                     A                      A                      A
 Frequencies --   573.6222               587.2298               588.0803
 Red. masses --     1.9783                 3.3117                 2.9688
 Frc consts  --     0.3835                 0.6728                 0.6049
 IR Inten    --    30.1888                40.5370                33.7625
 Raman Activ --     1.4913                 0.7560                 0.3328

                    40                     41                     42
                     A                      A                      A
 Frequencies --   610.4269               622.9909               674.3258
 Red. masses --     5.6231                 3.7462                 5.4285
 Frc consts  --     1.2345                 0.8567                 1.4544
 IR Inten    --     7.7493                38.7676                17.0419
 Raman Activ --     0.5034                 1.2362                 1.0988

                    43                     44                     45
                     A                      A                      A
 Frequencies --   699.1493               735.6918               741.0467
 Red. masses --     1.0678                 1.0978                 1.0778
 Frc consts  --     0.3075                 0.3501                 0.3487
 IR Inten    --   100.9633                70.5273                93.9930
 Raman Activ --     1.6958                 1.0880                 1.6796

                    46                     47                     48
                     A                      A                      A
 Frequencies --   807.8550               840.0107               847.1848
 Red. masses --     1.0761                 1.2986                 1.7985
 Frc consts  --     0.4138                 0.5399                 0.7605
 IR Inten    --   119.1442                47.2012                 2.5145
 Raman Activ --     2.6055                 0.7357                 0.7884

                    49                     50                     51
                     A                      A                      A
 Frequencies --   863.8777               925.9513               953.8480
 Red. masses --     1.3584                 6.1117                 4.9999
 Frc consts  --     0.5973                 3.0873                 2.6802
 IR Inten    --    27.4111               128.2600                13.5217
 Raman Activ --     0.3707                 2.4457                 0.4875

                    52                     53                     54
                     A                      A                      A
 Frequencies --   973.7748               983.2000               989.9255
 Red. masses --     6.9974                 6.4063                 4.6494
 Frc consts  --     3.9093                 3.6487                 2.6844
 IR Inten    --    66.3526               219.5025               126.9816
 Raman Activ --     3.7969                 0.6947                 0.8736

                    55                     56                     57
                     A                      A                      A
 Frequencies --   998.8022              1010.1330              1016.9880
 Red. masses --     7.3052                 5.5817                 6.1005
 Frc consts  --     4.2938                 3.3556                 3.7174
 IR Inten    --   399.6808                69.3104               164.9302
 Raman Activ --     2.3155                 1.7820                 3.3344

                    58                     59                     60
                     A                      A                      A
 Frequencies --  1028.8733              1046.6500              1060.6968
 Red. masses --     6.0543                 5.7003                 6.7336
 Frc consts  --     3.7760                 3.6791                 4.4635
 IR Inten    --   239.0102               108.0026                31.9192
 Raman Activ --     1.6480                 2.1469                 1.1364

                    61                     62                     63
                     A                      A                      A
 Frequencies --  1065.9391              1068.2152              1075.9879
 Red. masses --     4.5654                 3.4970                 3.1998
 Frc consts  --     3.0563                 2.3511                 2.1827
 IR Inten    --     8.6065                32.7481                13.5066
 Raman Activ --     4.9021                 3.4976                26.0939

                    64                     65                     66
                     A                      A                      A
 Frequencies --  1100.0602              1101.6357              1108.2796
 Red. masses --     2.4639                 2.4821                 2.6657
 Frc consts  --     1.7567                 1.7748                 1.9291
 IR Inten    --    57.4796                61.2678                 8.1080
 Raman Activ --     3.7906                 2.9574                10.7024

                    67                     68                     69
                     A                      A                      A
 Frequencies --  1116.8858              1119.8105              1128.6111
 Red. masses --     2.7893                 2.8912                 2.4846
 Frc consts  --     2.0501                 2.1361                 1.8646
 IR Inten    --    28.1297                24.9779                21.8322
 Raman Activ --     4.9447                 3.9618                10.7255

                    70                     71                     72
                     A                      A                      A
 Frequencies --  1140.3974              1150.9166              1154.8385
 Red. masses --     2.7532                 2.0161                 1.7879
 Frc consts  --     2.1096                 1.5734                 1.4049
 IR Inten    --    10.8575                14.0811                15.1634
 Raman Activ --     5.3884                 2.4576                 2.4413

                    73                     74                     75
                     A                      A                      A
 Frequencies --  1165.4002              1174.2168              1181.5595
 Red. masses --     2.4038                 1.8593                 1.7327
 Frc consts  --     1.9235                 1.5104                 1.4252
 IR Inten    --    10.1643                20.3942                10.2504
 Raman Activ --     3.5733                 0.7814                 2.1625

                    76                     77                     78
                     A                      A                      A
 Frequencies --  1202.3664              1211.5141              1223.9746
 Red. masses --     1.3276                 1.2725                 1.2950
 Frc consts  --     1.1308                 1.1004                 1.1430
 IR Inten    --     7.1148                14.0834                 4.0045
 Raman Activ --     2.3975                 1.3413                 0.8705

                    79                     80                     81
                     A                      A                      A
 Frequencies --  1244.7368              1246.3938              1253.6224
 Red. masses --     1.2963                 1.1868                 1.1618
 Frc consts  --     1.1833                 1.0862                 1.0758
 IR Inten    --    18.0101                11.9259                16.3999
 Raman Activ --     1.0890                 1.1500                 0.7856

                    82                     83                     84
                     A                      A                      A
 Frequencies --  1262.6121              1275.1812              1285.9559
 Red. masses --     1.1973                 1.1773                 1.4335
 Frc consts  --     1.1246                 1.1279                 1.3967
 IR Inten    --     3.7031                41.2425                17.9491
 Raman Activ --     1.7021                 4.9953                 2.5193

                    85                     86                     87
                     A                      A                      A
 Frequencies --  1294.4097              1301.0364              1308.0902
 Red. masses --     1.3251                 1.3201                 1.2980
 Frc consts  --     1.3081                 1.3166                 1.3086
 IR Inten    --    57.6084                21.3595                43.3730
 Raman Activ --     2.5110                 1.6745                 2.5907

                    88                     89                     90
                     A                      A                      A
 Frequencies --  1311.8244              1317.1317              1324.2551
 Red. masses --     1.2995                 1.1803                 1.3689
 Frc consts  --     1.3176                 1.2065                 1.4144
 IR Inten    --     4.1678                 1.7215                25.5435
 Raman Activ --    12.0804                 8.7653                 5.4311

                    91                     92                     93
                     A                      A                      A
 Frequencies --  1330.1897              1333.8236              1348.9388
 Red. masses --     1.3094                 1.3213                 1.1551
 Frc consts  --     1.3651                 1.3850                 1.2383
 IR Inten    --    12.2397                23.2607                43.4204
 Raman Activ --     1.8021                 2.4785                 0.9246

                    94                     95                     96
                     A                      A                      A
 Frequencies --  1356.3579              1369.4557              1373.7263
 Red. masses --     1.4913                 1.4050                 1.3855
 Frc consts  --     1.6164                 1.5525                 1.5405
 IR Inten    --     6.0458                 1.8643                 3.3989
 Raman Activ --     4.4077                11.8276                 6.0007

                    97                     98                     99
                     A                      A                      A
 Frequencies --  1378.2783              1397.5209              1400.8385
 Red. masses --     1.2754                 1.5144                 1.5599
 Frc consts  --     1.4275                 1.7426                 1.8035
 IR Inten    --     1.1471                 4.8315                 5.8627
 Raman Activ --     5.3983                 4.0008                 5.7470

                   100                    101                    102
                     A                      A                      A
 Frequencies --  1440.2864              1446.5662              1461.1415
 Red. masses --     1.3369                 1.2031                 1.2051
 Frc consts  --     1.6340                 1.4833                 1.5158
 IR Inten    --    32.9828                 5.2187                41.3980
 Raman Activ --     0.7540                 2.7161                 1.9948

                   103                    104                    105
                     A                      A                      A
 Frequencies --  1463.5689              1472.2960              1478.7185
 Red. masses --     1.1738                 1.1399                 1.2884
 Frc consts  --     1.4814                 1.4558                 1.6599
 IR Inten    --    11.5921                10.2208                14.8860
 Raman Activ --     1.6805                 5.5767                 1.6072

                   106                    107                    108
                     A                      A                      A
 Frequencies --  1483.2530              1483.9559              3250.4409
 Red. masses --     1.3538                 1.3868                 1.0586
 Frc consts  --     1.7548                 1.7993                 6.5897
 IR Inten    --    89.9051                34.0253               116.4387
 Raman Activ --     0.3585                 1.6390                49.5676

                   109                    110                    111
                     A                      A                      A
 Frequencies --  3254.1344              3266.0681              3267.3653
 Red. masses --     1.0584                 1.0814                 1.0832
 Frc consts  --     6.6036                 6.7965                 6.8132
 IR Inten    --    27.3631                11.5870                 6.6302
 Raman Activ --    97.4574                26.5287                23.2226

                   112                    113                    114
                     A                      A                      A
 Frequencies --  3271.8380              3276.1005              3277.2657
 Red. masses --     1.0794                 1.0737                 1.0827
 Frc consts  --     6.8081                 6.7896                 6.8516
 IR Inten    --    76.9108               419.6390                23.3786
 Raman Activ --   250.3873               174.3173                31.6845

                   115                    116                    117
                     A                      A                      A
 Frequencies --  3283.2682              3285.7144              3287.5227
 Red. masses --     1.0850                 1.0828                 1.0862
 Frc consts  --     6.8913                 6.8872                 6.9170
 IR Inten    --    10.6318                49.0629                17.2006
 Raman Activ --   109.6770               143.3922                29.8064

                   118                    119                    120
                     A                      A                      A
 Frequencies --  3289.1770              3301.1469              3303.3748
 Red. masses --     1.0852                 1.0877                 1.0875
 Frc consts  --     6.9173                 6.9837                 6.9918
 IR Inten    --    11.5338                64.8707                71.7128
 Raman Activ --     6.2360                14.5463                 8.6240

                   121                    122                    123
                     A                      A                      A
 Frequencies --  3307.1464              3310.3199              3313.7735
 Red. masses --     1.1015                 1.1005                 1.0721
 Frc consts  --     7.0982                 7.1051                 6.9361
 IR Inten    --    66.0829               131.1290               496.3719
 Raman Activ --    17.8844                68.1280               128.0421

                   124                    125                    126
                     A                      A                      A
 Frequencies --  3358.1936              3374.5052              3376.8150
 Red. masses --     1.0644                 1.0659                 1.0672
 Frc consts  --     7.0724                 7.1512                 7.1699
 IR Inten    --    26.3806                39.0664                52.8690
 Raman Activ --    92.1159               128.6767               148.4418

                   127                    128                    129
                     A                      A                      A
 Frequencies --  3380.7917              3887.1684              3892.1287
 Red. masses --     1.0686                 1.0678                 1.0674
 Frc consts  --     7.1963                 9.5058                 9.5273
 IR Inten    --   109.9787                78.4660                73.2566
 Raman Activ --   168.6262                88.7508               114.0485

 - Thermochemistry -
 -------------------
 Temperature   298.150 Kelvin.  Pressure   1.00000 Atm.
 Atom     1 has atomic number  8 and mass  15.99491

 Molecular mass:   342.11621 amu.
 Principal axes and moments of inertia in atomic units:
                           1         2         3
     Eigenvalues --  4535.86580********************
           X            0.99997   0.00797   0.00014
           Y           -0.00797   0.99997   0.00101
           Z           -0.00013  -0.00101   1.00000
 This molecule is an asymmetric top.
 Rotational symmetry number  1.
 Warning -- assumption of classical behavior for rotation
           may cause significant error
 Rotational temperatures (Kelvin)      0.01910     0.00694     0.00523
 Rotational constants (GHZ):           0.39788     0.14464     0.10902
    7 imaginary frequencies ignored.
 Zero-point vibrational energy     973053.2 (Joules/Mol)
                                  232.56530 (Kcal/Mol)
 Warning -- explicit consideration of  33 degrees of freedom as
           vibrations may cause significant error
 Vibrational temperatures:     74.72   100.47   112.93   124.16   177.03
          (Kelvin)            210.78   248.05   268.59   289.64   324.80
                              365.44   402.75   424.44   437.28   442.39
                              452.68   462.14   491.35   523.94   535.96
                              586.28   599.39   623.07   628.67   678.86
                              697.83   742.79   755.41   810.92   825.31
                              844.89   846.12   878.27   896.34   970.20
                             1005.92  1058.50  1066.20  1162.32  1208.59
                             1218.91  1242.93  1332.24  1372.37  1401.04
                             1414.60  1424.28  1437.05  1453.35  1463.22
                             1480.32  1505.89  1526.10  1533.65  1536.92
                             1548.10  1582.74  1585.01  1594.57  1606.95
                             1611.16  1623.82  1640.78  1655.91  1661.55
                             1676.75  1689.43  1700.00  1729.93  1743.10
                             1761.02  1790.90  1793.28  1803.68  1816.61
                             1834.70  1850.20  1862.36  1871.90  1882.05
                             1887.42  1895.06  1905.31  1913.84  1919.07
                             1940.82  1951.49  1970.34  1976.48  1983.03
                             2010.72  2015.49  2072.25  2081.28  2102.25
                             2105.75  2118.30  2127.54  2134.07  2135.08
                             4676.65  4681.97  4699.14  4701.00  4707.44
                             4713.57  4715.25  4723.88  4727.40  4730.01
                             4732.39  4749.61  4752.81  4758.24  4762.81
                             4767.77  4831.69  4855.15  4858.48  4864.20
                             5592.76  5599.90

 Zero-point correction=                           0.370616 (Hartree/Particle)
 Thermal correction to Energy=                    0.389064
 Thermal correction to Enthalpy=                  0.390008
 Thermal correction to Gibbs Free Energy=         0.325097
 Sum of electronic and zero-point Energies=          -1297.617233
 Sum of electronic and thermal Energies=             -1297.598786
 Sum of electronic and thermal Enthalpies=           -1297.597841
 Sum of electronic and thermal Free Energies=        -1297.662753

                     E (Thermal)             CV                S
                      KCal/Mol        Cal/Mol-Kelvin    Cal/Mol-Kelvin
 Total                  244.141             76.348            136.618
 Electronic               0.000              0.000              0.000
 Translational            0.889              2.981             43.384
 Rotational               0.889              2.981             35.192
 Vibrational            242.364             70.386             58.041
 Vibration     1          0.596              1.977              4.743
 Vibration     2          0.598              1.969              4.158
 Vibration     3          0.600              1.964              3.928
 Vibration     4          0.601              1.959              3.742
 Vibration     5          0.610              1.930              3.052
 Vibration     6          0.617              1.906              2.717
 Vibration     7          0.626              1.876              2.409
 Vibration     8          0.632              1.858              2.261
 Vibration     9          0.638              1.838              2.121
 Vibration    10          0.650              1.802              1.913
 Vibration    11          0.665              1.756              1.703
 Vibration    12          0.680              1.711              1.534
 Vibration    13          0.689              1.683              1.445
 Vibration    14          0.695              1.666              1.395
 Vibration    15          0.697              1.659              1.376
 Vibration    16          0.702              1.646              1.338
 Vibration    17          0.707              1.633              1.304
 Vibration    18          0.721              1.593              1.205
 Vibration    19          0.738              1.546              1.104
 Vibration    20          0.744              1.529              1.069
 Vibration    21          0.772              1.454              0.936
 Vibration    22          0.780              1.434              0.904
 Vibration    23          0.794              1.398              0.849
 Vibration    24          0.797              1.390              0.836
 Vibration    25          0.829              1.313              0.732
 Vibration    26          0.841              1.283              0.697
 Vibration    27          0.871              1.214              0.619
 Vibration    28          0.880              1.195              0.598
 Vibration    29          0.919              1.110              0.517
 Vibration    30          0.930              1.088              0.497
 Vibration    31          0.944              1.059              0.472
 Vibration    32          0.945              1.057              0.471
 Vibration    33          0.969              1.010              0.432

 Normal termination of Gaussian 09 at Tue Mar 29 18:13:18 2016.
