 Gaussian 09, Revision B.01,
 Gaussian 09:  EM64L-G09RevB.01 12-Aug-2010

 -------------------------------------------------
 # freq=raman b3lyp/6-31+g(2d,p) geom=connectivity
 -------------------------------------------------

 -----------------
 473 9756/9756.com
 -----------------
 Symbolic Z-matrix:
 Charge =  0 Multiplicity = 1

                         Standard orientation:
 ---------------------------------------------------------------------
 Center     Atomic      Atomic             Coordinates (Angstroms)
 Number     Number       Type             X           Y           Z
 ---------------------------------------------------------------------
      1          8           0        5.092192   -0.398918   -0.210624
      2          6           0        3.745635   -0.084299    0.170196
      3          6           0        3.281761    1.246120   -0.400038
      4          8           0        4.250647    2.292485   -0.240613
      5          1           0        5.149528    1.858793   -0.307783
      6          6           0        1.891121    1.528498    0.144068
      7          8           0        1.263031    2.747520   -0.278918
      8          1           0        0.308364    2.742225    0.020469
      9          6           0        3.118199   -2.484415    0.293503
     10          8           0        4.290296   -3.225148   -0.076395
     11          1           0        4.109364   -4.188160   -0.275817
     12          6           0        2.707815   -1.118632   -0.233786
     13          8           0        1.410381   -0.832563    0.309245
     14          6           0        0.867049    0.432235   -0.097081
     15          8           0       -0.361342    0.546373    0.636502
     16          6           0       -1.557307    0.302597   -0.117843
     17          6           0       -1.990000   -1.125369    0.170379
     18          8           0       -1.069317   -2.157745   -0.212188
     19          1           0       -0.209107   -1.880059    0.216254
     20          6           0       -3.355866   -1.599733   -0.297811
     21          8           0       -3.880758   -2.653121    0.523091
     22          1           0       -4.675823   -2.914558   -0.024653
     23          6           0       -2.398751    2.703827   -0.048583
     24          8           0       -1.273708    3.324679    0.589676
     25          1           0       -1.360793    4.318906    0.534451
     26          6           0       -2.669407    1.249664    0.300161
     27          8           0       -3.842803    0.841859   -0.418661
     28          6           0       -4.289435   -0.446059    0.028490
     29          8           0       -5.491285   -0.793820   -0.673040
     30          1           0       -6.161701   -1.067883   -0.042935
     31          1           0       -4.479173   -0.419410    1.081196
     32          1           0       -3.369580   -1.847105   -1.338733
     33          1           0       -2.034607   -1.176774    1.238212
     34          1           0       -1.356860    0.416894   -1.162667
     35          1           0       -2.842739    1.158510    1.352086
     36          1           0       -3.271958    3.269897    0.200363
     37          1           0       -2.252760    2.766731   -1.106708
     38          1           0        2.291628   -3.132330    0.088842
     39          1           0        3.167722   -2.379414    1.357186
     40          1           0        2.643643   -1.156473   -1.301190
     41          1           0        5.601589   -0.624031    0.571322
     42          1           0        3.724136   -0.004840    1.237025
     43          1           0        3.169263    1.101891   -1.454287
     44          1           0        2.003383    1.604391    1.205452
     45          1           0        0.642916    0.393375   -1.142622
 ---------------------------------------------------------------------

 SCF Done:  E(RB3LYP) =  -1297.97948559     A.U. after   13 cycles

 The electronic state is 1-A.
 Alpha  occ. eigenvalues --  -19.18887 -19.18776 -19.18606 -19.18271 -19.17805
 Alpha  occ. eigenvalues --  -19.17490 -19.16744 -19.16299 -19.15072 -19.14340
 Alpha  occ. eigenvalues --  -19.13438 -10.30845 -10.30077 -10.26647 -10.25982
 Alpha  occ. eigenvalues --  -10.25800 -10.25629 -10.25262 -10.24524 -10.24467
 Alpha  occ. eigenvalues --  -10.24412 -10.24201 -10.23941  -1.10288  -1.09217
 Alpha  occ. eigenvalues --   -1.05774  -1.05454  -1.04540  -1.04368  -1.02965
 Alpha  occ. eigenvalues --   -1.02448  -1.01803  -1.01107  -1.00230  -0.82350
 Alpha  occ. eigenvalues --   -0.80967  -0.79312  -0.78430  -0.72207  -0.69953
 Alpha  occ. eigenvalues --   -0.67123  -0.65021  -0.63514  -0.62790  -0.61579
 Alpha  occ. eigenvalues --   -0.60565  -0.56557  -0.55911  -0.55137  -0.54772
 Alpha  occ. eigenvalues --   -0.54342  -0.53613  -0.52904  -0.52512  -0.51222
 Alpha  occ. eigenvalues --   -0.50838  -0.49906  -0.49719  -0.48908  -0.46676
 Alpha  occ. eigenvalues --   -0.46070  -0.45591  -0.44346  -0.43786  -0.43179
 Alpha  occ. eigenvalues --   -0.42906  -0.42107  -0.41730  -0.40209  -0.39598
 Alpha  occ. eigenvalues --   -0.39327  -0.38435  -0.37513  -0.36756  -0.35858
 Alpha  occ. eigenvalues --   -0.35619  -0.35163  -0.34733  -0.34163  -0.33805
 Alpha  occ. eigenvalues --   -0.32780  -0.31549  -0.31433  -0.30772  -0.30259
 Alpha  occ. eigenvalues --   -0.29434  -0.28810  -0.28115  -0.27133  -0.26966
 Alpha  occ. eigenvalues --   -0.26553
 Alpha virt. eigenvalues --   -0.02051  -0.01995  -0.01734  -0.00261   0.00389
 Alpha virt. eigenvalues --    0.00994   0.01918   0.02212   0.03007   0.03339
 Alpha virt. eigenvalues --    0.03793   0.04382   0.04816   0.05103   0.05462

 Mulliken atomic charges:
              1
     1  O   -0.543398
     2  C   -0.192306
     3  C    0.215428
     4  O   -0.560336
     5  H    0.350291
     6  C    0.005293
     7  O   -0.584029
     8  H    0.421452
     9  C   -0.365529
    10  O   -0.549132
    11  H    0.345560
    12  C    0.460053
    13  O   -0.264970
    14  C    0.097623
    15  O   -0.237375
    16  C    0.339921
    17  C    0.057754
    18  O   -0.564354
    19  H    0.367655
    20  C    0.022373
    21  O   -0.513630
    22  H    0.335332
    23  C   -0.270534
    24  O   -0.547582
    25  H    0.361721
    26  C   -0.025150
    27  O   -0.277103
    28  C    0.185751
    29  O   -0.572112
    30  H    0.340124
    31  H    0.138153
    32  H    0.143871
    33  H    0.124548
    34  H    0.116902
    35  H    0.124886
    36  H    0.148453
    37  H    0.158659
    38  H    0.137329
    39  H    0.141919
    40  H    0.112057
    41  H    0.348130
    42  H    0.117092
    43  H    0.108502
    44  H    0.118071
    45  H    0.122638
 Sum of Mulliken atomic charges =   0.00000

 Dipole moment (field-independent basis, Debye):
    X=             -2.7115    Y=             -0.7437    Z=              1.6628  Tot=              3.2665
 Quadrupole moment (field-independent basis, Debye-Ang):
   XX=           -124.5601   YY=           -135.1312   ZZ=           -139.3761
   XY=            -14.7718   XZ=              0.4763   YZ=              3.7569

  Exact polarizability: 232.798   1.029 197.652   1.038   0.164 143.266
 Approx polarizability: 273.499   1.231 257.182   2.443   0.796 239.833

 ******    7 imaginary frequencies (negative Signs) ******

                     1                      2                      3
                     A                      A                      A
 Frequencies --  -317.5017              -243.6242              -240.8239
 Red. masses --     1.6206                 1.2760                 1.7416
 Frc consts  --     0.0963                 0.0446                 0.0595
 IR Inten    --     4.8280               131.6092                 7.2811
 Raman Activ --     0.0662                 1.4098                 0.0280

                     4                      5                      6
                     A                      A                      A
 Frequencies --  -177.2187               -70.5223               -46.5031
 Red. masses --     1.2209                 6.3383                 7.0117
 Frc consts  --     0.0226                 0.0186                 0.0089
 IR Inten    --    93.5678                 0.8720                 1.1806
 Raman Activ --     0.4777                 0.0235                 0.0703

                     7                      8                      9
                     A                      A                      A
 Frequencies --   -28.8907                52.8333                67.7813
 Red. masses --     6.2036                 7.2274                 5.7050
 Frc consts  --     0.0031                 0.0119                 0.0154
 IR Inten    --     1.8571                 0.1579                 6.3703
 Raman Activ --     0.0194                 0.0662                 0.1429

                    10                     11                     12
                     A                      A                      A
 Frequencies --    92.4028               113.6115               136.6453
 Red. masses --     6.4353                 5.6806                 5.6061
 Frc consts  --     0.0324                 0.0432                 0.0617
 IR Inten    --     0.4693                 9.1110                 0.9134
 Raman Activ --     0.2875                 0.0660                 0.0373

                    13                     14                     15
                     A                      A                      A
 Frequencies --   155.5825               183.5142               189.2403
 Red. masses --     6.2711                 7.6907                 5.8277
 Frc consts  --     0.0894                 0.1526                 0.1230
 IR Inten    --     4.4614                 0.2006                 4.1973
 Raman Activ --     0.4341                 0.4825                 1.0199

                    16                     17                     18
                     A                      A                      A
 Frequencies --   200.7198               224.6601               265.3209
 Red. masses --     6.4111                 6.1743                 4.3708
 Frc consts  --     0.1522                 0.1836                 0.1813
 IR Inten    --     1.1575                 1.0196                24.8491
 Raman Activ --     1.4535                 1.3646                 0.3516

                    19                     20                     21
                     A                      A                      A
 Frequencies --   272.7578               293.1751               305.0709
 Red. masses --     4.9631                 5.0810                 6.0518
 Frc consts  --     0.2175                 0.2573                 0.3318
 IR Inten    --     0.9104                 1.1312                 0.7838
 Raman Activ --     0.0937                 0.0507                 3.8121

                    22                     23                     24
                     A                      A                      A
 Frequencies --   309.5104               312.7878               326.7927
 Red. masses --     6.1569                 5.1890                 5.5199
 Frc consts  --     0.3475                 0.2991                 0.3473
 IR Inten    --     1.7201                 3.3858                 2.6972
 Raman Activ --     1.4649                 0.3065                 2.3048

                    25                     26                     27
                     A                      A                      A
 Frequencies --   338.3828               355.3200               383.6662
 Red. masses --     6.5993                 4.4198                 7.3306
 Frc consts  --     0.4452                 0.3288                 0.6358
 IR Inten    --    14.0213                 2.7738                 0.7594
 Raman Activ --     2.0853                 0.7458                 2.1692

                    28                     29                     30
                     A                      A                      A
 Frequencies --   409.8805               414.3201               419.2968
 Red. masses --     6.6938                 3.6564                 5.6430
 Frc consts  --     0.6626                 0.3698                 0.5845
 IR Inten    --     5.9151                17.2744                 2.9524
 Raman Activ --     1.7692                 3.5964                 4.9799

                    31                     32                     33
                     A                      A                      A
 Frequencies --   447.9535               475.3008               491.9669
 Red. masses --     4.7910                 4.5286                 5.4632
 Frc consts  --     0.5664                 0.6028                 0.7791
 IR Inten    --     1.9982                 7.4062                 3.3319
 Raman Activ --     2.3007                 2.6620                 1.0743

                    34                     35                     36
                     A                      A                      A
 Frequencies --   516.8045               520.9297               568.5089
 Red. masses --     3.1046                 3.2951                 3.3664
 Frc consts  --     0.4885                 0.5268                 0.6411
 IR Inten    --    26.5450                 1.2139                32.2758
 Raman Activ --     0.3633                 7.2889                 0.5876

                    37                     38                     39
                     A                      A                      A
 Frequencies --   589.7004               598.8752               606.0437
 Red. masses --     3.5821                 4.2717                 4.5187
 Frc consts  --     0.7339                 0.9027                 0.9778
 IR Inten    --    13.0087                32.8842                17.3234
 Raman Activ --     0.3276                 1.2566                 2.0902

                    40                     41                     42
                     A                      A                      A
 Frequencies --   623.2288               637.6256               676.3197
 Red. masses --     3.1974                 1.3724                 4.9712
 Frc consts  --     0.7317                 0.3287                 1.3397
 IR Inten    --    13.4737                84.2049                12.6498
 Raman Activ --     0.7132                 1.9829                 0.5427

                    43                     44                     45
                     A                      A                      A
 Frequencies --   724.7496               744.8303               773.4522
 Red. masses --     1.0792                 1.0592                 1.1293
 Frc consts  --     0.3340                 0.3462                 0.3980
 IR Inten    --   115.3900                89.9530                80.8124
 Raman Activ --     1.6359                 1.4372                 1.0829

                    46                     47                     48
                     A                      A                      A
 Frequencies --   828.2928               838.7077               843.4524
 Red. masses --     1.1061                 1.5977                 1.2612
 Frc consts  --     0.4471                 0.6621                 0.5286
 IR Inten    --   112.8242                13.5639                32.8471
 Raman Activ --     3.1051                 0.4700                 0.0783

                    49                     50                     51
                     A                      A                      A
 Frequencies --   873.5818               924.7416               959.7427
 Red. masses --     1.4964                 6.5064                 4.0441
 Frc consts  --     0.6729                 3.2782                 2.1947
 IR Inten    --    27.1534               158.8638               103.2501
 Raman Activ --     0.5107                 2.7284                 1.6560

                    52                     53                     54
                     A                      A                      A
 Frequencies --   974.3699               981.3137               992.3327
 Red. masses --     5.0555                 5.6589                 6.4224
 Frc consts  --     2.8279                 3.2107                 3.7262
 IR Inten    --   121.4183               125.4161                54.4666
 Raman Activ --     0.8040                 1.9560                 0.9476

                    55                     56                     57
                     A                      A                      A
 Frequencies --  1002.0881              1014.1516              1019.9315
 Red. masses --     5.9159                 6.1642                 5.4150
 Frc consts  --     3.5001                 3.7354                 3.3189
 IR Inten    --   259.5383               137.5993               149.6728
 Raman Activ --     1.4882                 3.6937                 2.0377

                    58                     59                     60
                     A                      A                      A
 Frequencies --  1030.8627              1041.9995              1062.2069
 Red. masses --     7.4312                 6.9171                 6.2005
 Frc consts  --     4.6528                 4.4249                 4.1219
 IR Inten    --   306.6809                87.7494                62.4187
 Raman Activ --     2.7028                 2.0153                 0.3083

                    61                     62                     63
                     A                      A                      A
 Frequencies --  1065.6272              1073.6688              1077.9926
 Red. masses --     3.7267                 4.6056                 3.8359
 Frc consts  --     2.4934                 3.1281                 2.6263
 IR Inten    --    29.9837                10.6995                28.5723
 Raman Activ --     7.8409                19.1924                11.6927

                    64                     65                     66
                     A                      A                      A
 Frequencies --  1095.8593              1108.7456              1114.4439
 Red. masses --     2.3804                 2.7729                 3.1393
 Frc consts  --     1.6842                 2.0084                 2.2972
 IR Inten    --    95.6265                25.1043                16.7204
 Raman Activ --     3.8990                 1.3150                11.8847

                    67                     68                     69
                     A                      A                      A
 Frequencies --  1120.4143              1129.8946              1142.5592
 Red. masses --     3.1625                 2.3758                 2.7852
 Frc consts  --     2.3390                 1.7871                 2.1423
 IR Inten    --    61.7159                 6.5418                21.4843
 Raman Activ --     2.6775                 2.5568                 4.8623

                    70                     71                     72
                     A                      A                      A
 Frequencies --  1149.9251              1154.1997              1160.9116
 Red. masses --     2.6449                 1.8615                 1.9309
 Frc consts  --     2.0606                 1.4611                 1.5332
 IR Inten    --    38.4591                 7.4862                11.7444
 Raman Activ --     6.0463                 2.5639                 3.5268

                    73                     74                     75
                     A                      A                      A
 Frequencies --  1162.9413              1168.1461              1184.0918
 Red. masses --     1.8802                 1.7961                 1.9443
 Frc consts  --     1.4982                 1.4441                 1.6062
 IR Inten    --    12.4707                 1.4287                35.6262
 Raman Activ --     3.2862                 0.9122                 1.8239

                    76                     77                     78
                     A                      A                      A
 Frequencies --  1205.3620              1225.7821              1239.3429
 Red. masses --     1.4707                 1.3051                 1.2520
 Frc consts  --     1.2590                 1.1553                 1.1331
 IR Inten    --     8.5867                26.3738                 4.7687
 Raman Activ --     3.9378                 2.7512                 0.8742

                    79                     80                     81
                     A                      A                      A
 Frequencies --  1245.4458              1250.2050              1264.6697
 Red. masses --     1.3142                 1.1921                 1.2502
 Frc consts  --     1.2010                 1.0978                 1.1781
 IR Inten    --     2.8714                23.7724                 8.8765
 Raman Activ --     1.0028                 1.6513                 2.1085

                    82                     83                     84
                     A                      A                      A
 Frequencies --  1277.4919              1283.1825              1291.1156
 Red. masses --     1.3483                 1.4060                 1.2380
 Frc consts  --     1.2964                 1.3640                 1.2159
 IR Inten    --    20.4048                25.7078                 8.9840
 Raman Activ --     1.0412                 3.4126                 0.9668

                    85                     86                     87
                     A                      A                      A
 Frequencies --  1296.8251              1302.7911              1308.3927
 Red. masses --     1.2375                 1.3306                 1.3089
 Frc consts  --     1.2262                 1.3306                 1.3202
 IR Inten    --    21.7577                10.6929                19.4994
 Raman Activ --     3.5960                 0.5464                 4.6802

                    88                     89                     90
                     A                      A                      A
 Frequencies --  1321.7929              1332.2731              1336.8984
 Red. masses --     1.2209                 1.1887                 1.2391
 Frc consts  --     1.2567                 1.2431                 1.3048
 IR Inten    --     3.8879                14.7403                45.2172
 Raman Activ --     7.9281                 9.2739                 8.5042

                    91                     92                     93
                     A                      A                      A
 Frequencies --  1345.9988              1357.4683              1366.7811
 Red. masses --     1.2875                 1.2709                 1.5051
 Frc consts  --     1.3743                 1.3798                 1.6565
 IR Inten    --    11.1104                20.8194                11.2615
 Raman Activ --     1.6239                 2.4905                 7.0800

                    94                     95                     96
                     A                      A                      A
 Frequencies --  1368.9992              1373.0145              1374.5329
 Red. masses --     1.1484                 1.2371                 1.4115
 Frc consts  --     1.2681                 1.3741                 1.5712
 IR Inten    --    29.9568                13.4939                 6.2598
 Raman Activ --     4.9975                 4.0279                 3.5616

                    97                     98                     99
                     A                      A                      A
 Frequencies --  1381.0736              1403.1754              1406.8630
 Red. masses --     1.4162                 1.3088                 1.3432
 Frc consts  --     1.5915                 1.5183                 1.5664
 IR Inten    --    31.6131                 3.1034                 2.0635
 Raman Activ --     2.6156                 1.5002                10.5220

                   100                    101                    102
                     A                      A                      A
 Frequencies --  1437.6498              1444.1702              1459.1818
 Red. masses --     1.3091                 1.3634                 1.4109
 Frc consts  --     1.5941                 1.6753                 1.7700
 IR Inten    --    63.8548                14.7071                20.9617
 Raman Activ --     1.2809                 2.7872                 1.0736

                   103                    104                    105
                     A                      A                      A
 Frequencies --  1461.6736              1476.8714              1480.5282
 Red. masses --     1.1027                 1.1468                 1.2710
 Frc consts  --     1.3880                 1.4737                 1.6414
 IR Inten    --     2.9891                12.9413                25.6315
 Raman Activ --     2.6220                 4.0644                 0.9742

                   106                    107                    108
                     A                      A                      A
 Frequencies --  1481.3775              1523.2764              3253.8452
 Red. masses --     1.2520                 1.3026                 1.0686
 Frc consts  --     1.6188                 1.7808                 6.6659
 IR Inten    --    60.5333                42.5778               225.3076
 Raman Activ --     3.4808                 1.3011                17.8626

                   109                    110                    111
                     A                      A                      A
 Frequencies --  3254.4386              3259.6208              3263.2742
 Red. masses --     1.0622                 1.0698                 1.0814
 Frc consts  --     6.6286                 6.6970                 6.7849
 IR Inten    --    83.0244               133.4543                39.0329
 Raman Activ --   131.9867               114.2623                47.0119

                   112                    113                    114
                     A                      A                      A
 Frequencies --  3265.4098              3271.2324              3274.6217
 Red. masses --     1.0751                 1.0740                 1.0805
 Frc consts  --     6.7542                 6.7712                 6.8265
 IR Inten    --    28.2708               231.3438                40.4290
 Raman Activ --    62.5780               197.8852                84.3508

                   115                    116                    117
                     A                      A                      A
 Frequencies --  3279.4799              3282.8892              3288.1695
 Red. masses --     1.0833                 1.0860                 1.0863
 Frc consts  --     6.8648                 6.8962                 6.9198
 IR Inten    --     8.5954                 1.6134                24.0602
 Raman Activ --    50.9214                18.7624               116.2136

                   118                    119                    120
                     A                      A                      A
 Frequencies --  3291.6076              3297.1765              3307.0195
 Red. masses --     1.0879                 1.0856                 1.1008
 Frc consts  --     6.9446                 6.9538                 7.0927
 IR Inten    --    53.5252                47.2745                59.3952
 Raman Activ --    28.8216                10.3085                15.6137

                   121                    122                    123
                     A                      A                      A
 Frequencies --  3309.2997              3317.2945              3319.6239
 Red. masses --     1.0874                 1.0678                 1.1055
 Frc consts  --     7.0164                 6.9235                 7.1778
 IR Inten    --    34.0491               437.8448                42.2658
 Raman Activ --    22.1440               171.6843                42.9962

                   124                    125                    126
                     A                      A                      A
 Frequencies --  3359.3909              3368.9331              3369.8512
 Red. masses --     1.0653                 1.0645                 1.0702
 Frc consts  --     7.0837                 7.1183                 7.1602
 IR Inten    --    53.4657                34.3975                57.9498
 Raman Activ --    87.0744               101.1700               154.3068

                   127                    128                    129
                     A                      A                      A
 Frequencies --  3380.7685              3889.7956              3890.0469
 Red. masses --     1.0673                 1.0674                 1.0676
 Frc consts  --     7.1873                 9.5159                 9.5188
 IR Inten    --    72.0790                95.2400                65.9264
 Raman Activ --   144.1741                73.9035               104.6159

 - Thermochemistry -
 -------------------
 Temperature   298.150 Kelvin.  Pressure   1.00000 Atm.
 Atom     1 has atomic number  8 and mass  15.99491

 Molecular mass:   342.11621 amu.
 Principal axes and moments of inertia in atomic units:
                           1         2         3
     Eigenvalues --  4408.13644********************
           X            0.99997  -0.00726  -0.00013
           Y            0.00726   0.99997  -0.00052
           Z            0.00013   0.00052   1.00000
 This molecule is an asymmetric top.
 Rotational symmetry number  1.
 Warning -- assumption of classical behavior for rotation
           may cause significant error
 Rotational temperatures (Kelvin)      0.01965     0.00691     0.00524
 Rotational constants (GHZ):           0.40941     0.14391     0.10918
    7 imaginary frequencies ignored.
 Zero-point vibrational energy     976360.6 (Joules/Mol)
                                  233.35579 (Kcal/Mol)
 Warning -- explicit consideration of  32 degrees of freedom as
           vibrations may cause significant error
 Vibrational temperatures:     76.02    97.52   132.95   163.46   196.60
          (Kelvin)            223.85   264.04   272.27   288.79   323.24
                              381.74   392.44   421.81   438.93   445.32
                              450.03   470.18   486.86   511.23   552.01
                              589.73   596.11   603.27   644.50   683.85
                              707.83   743.57   749.50   817.96   848.45
                              861.65   871.96   896.69   917.40   973.07
                             1042.75  1071.64  1112.82  1191.73  1206.71
                             1213.54  1256.89  1330.50  1380.85  1401.90
                             1411.89  1427.74  1441.78  1459.14  1467.45
                             1483.18  1499.20  1528.28  1533.20  1544.77
                             1550.99  1576.70  1595.24  1603.43  1612.02
                             1625.66  1643.89  1654.48  1660.63  1670.29
                             1673.21  1680.70  1703.64  1734.24  1763.62
                             1783.14  1791.92  1798.76  1819.58  1838.02
                             1846.21  1857.63  1865.84  1874.42  1882.48
                             1901.76  1916.84  1923.50  1936.59  1953.09
                             1966.49  1969.68  1975.46  1977.64  1987.05
                             2018.85  2024.16  2068.45  2077.84  2099.43
                             2103.02  2124.89  2130.15  2131.37  2191.65
                             4681.55  4682.41  4689.86  4695.12  4698.19
                             4706.57  4711.44  4718.43  4723.34  4730.94
                             4735.88  4743.90  4758.06  4761.34  4772.84
                             4776.19  4833.41  4847.14  4848.46  4864.17
                             5596.54  5596.90

 Zero-point correction=                           0.371876 (Hartree/Particle)
 Thermal correction to Energy=                    0.390082
 Thermal correction to Enthalpy=                  0.391026
 Thermal correction to Gibbs Free Energy=         0.326887
 Sum of electronic and zero-point Energies=          -1297.607609
 Sum of electronic and thermal Energies=             -1297.589404
 Sum of electronic and thermal Enthalpies=           -1297.588460
 Sum of electronic and thermal Free Energies=        -1297.652599

                     E (Thermal)             CV                S
                      KCal/Mol        Cal/Mol-Kelvin    Cal/Mol-Kelvin
 Total                  244.780             75.755            134.992
 Electronic               0.000              0.000              0.000
 Translational            0.889              2.981             43.384
 Rotational               0.889              2.981             35.168
 Vibrational            243.002             69.793             56.440
 Vibration     1          0.596              1.976              4.708
 Vibration     2          0.598              1.970              4.217
 Vibration     3          0.602              1.955              3.609
 Vibration     4          0.607              1.938              3.206
 Vibration     5          0.614              1.917              2.850
 Vibration     6          0.620              1.896              2.603
 Vibration     7          0.631              1.862              2.292
 Vibration     8          0.633              1.855              2.235
 Vibration     9          0.638              1.839              2.126
 Vibration    10          0.649              1.803              1.921
 Vibration    11          0.671              1.737              1.627
 Vibration    12          0.676              1.724              1.579
 Vibration    13          0.688              1.686              1.456
 Vibration    14          0.696              1.664              1.389
 Vibration    15          0.699              1.656              1.365
 Vibration    16          0.701              1.649              1.348
 Vibration    17          0.710              1.622              1.276
 Vibration    18          0.719              1.599              1.220
 Vibration    19          0.731              1.564              1.143
 Vibration    20          0.753              1.505              1.025
 Vibration    21          0.774              1.449              0.927
 Vibration    22          0.778              1.439              0.911
 Vibration    23          0.782              1.428              0.894
 Vibration    24          0.807              1.365              0.802
 Vibration    25          0.832              1.305              0.723
 Vibration    26          0.848              1.268              0.679
 Vibration    27          0.872              1.213              0.617
 Vibration    28          0.876              1.204              0.608
 Vibration    29          0.925              1.099              0.507
 Vibration    30          0.947              1.054              0.468
 Vibration    31          0.957              1.034              0.452
 Vibration    32          0.965              1.019              0.439

 Normal termination of Gaussian 09 at Tue Mar 29 19:12:49 2016.
