 Gaussian 09, Revision B.01,
 Gaussian 09:  EM64L-G09RevB.01 12-Aug-2010

 -------------------------------------------------
 # freq=raman b3lyp/6-31+g(2d,p) geom=connectivity
 -------------------------------------------------

 -----------------
 423 8937/8937.com
 -----------------
 Symbolic Z-matrix:
 Charge =  0 Multiplicity = 1

                         Standard orientation:
 ---------------------------------------------------------------------
 Center     Atomic      Atomic             Coordinates (Angstroms)
 Number     Number       Type             X           Y           Z
 ---------------------------------------------------------------------
      1          8           0        4.992932   -0.392940   -0.310672
      2          6           0        3.744918   -0.089556    0.330960
      3          6           0        3.252895    1.253200   -0.184759
      4          8           0        4.153683    2.353617    0.005420
      5          1           0        5.061633    2.049544   -0.280603
      6          6           0        1.823165    1.539209    0.242513
      7          8           0        1.230018    2.787342   -0.144111
      8          1           0        0.250384    2.793660    0.056376
      9          6           0        2.974569   -2.613972    0.074284
     10          8           0        4.195753   -3.261881   -0.313404
     11          1           0        4.096504   -4.257025   -0.321418
     12          6           0        2.775035   -1.132698   -0.198818
     13          8           0        1.432981   -0.871224    0.235932
     14          6           0        0.925663    0.396434   -0.205118
     15          8           0       -0.280605    0.600232    0.545165
     16          6           0       -1.502503    0.209132   -0.096133
     17          6           0       -1.987430   -1.110482    0.482673
     18          8           0       -1.001822   -2.086837    0.114585
     19          1           0       -0.061665   -1.745532    0.138940
     20          6           0       -3.319909   -1.505244   -0.132085
     21          8           0       -3.860735   -2.721781    0.403541
     22          1           0       -4.754311   -2.956327    0.020212
     23          6           0       -2.210359    2.630525   -0.401705
     24          8           0       -1.336081    3.340505    0.487756
     25          1           0       -1.372270    4.296443    0.195530
     26          6           0       -2.575622    1.259171    0.140708
     27          8           0       -3.821995    0.840314   -0.435485
     28          6           0       -4.341780   -0.397314    0.069753
     29          8           0       -5.546831   -0.764806   -0.616710
     30          1           0       -6.213774   -1.023222    0.023609
     31          1           0        5.653358   -0.598479    0.355053
     32          1           0        2.174287   -3.134342   -0.409104
     33          1           0        2.861996   -2.758212    1.128525
     34          1           0        2.778258   -1.023064   -1.263182
     35          1           0        3.820848   -0.112687    1.398012
     36          1           0        3.199349    1.131309   -1.246445
     37          1           0        1.822677    1.526641    1.312439
     38          1           0        0.746857    0.414449   -1.259918
     39          1           0       -3.105469    3.200534   -0.538699
     40          1           0       -1.724045    2.512686   -1.347492
     41          1           0       -2.716162    1.351282    1.197432
     42          1           0       -1.335557    0.098943   -1.147269
     43          1           0       -2.069975   -1.044913    1.547467
     44          1           0       -3.174951   -1.639172   -1.183727
     45          1           0       -4.548212   -0.293287    1.114484
 ---------------------------------------------------------------------

 SCF Done:  E(RB3LYP) =  -1297.99574439     A.U. after   13 cycles

 The electronic state is 1-A.
 Alpha  occ. eigenvalues --  -19.19074 -19.19029 -19.18393 -19.18238 -19.17700
 Alpha  occ. eigenvalues --  -19.17226 -19.16183 -19.15597 -19.15353 -19.13438
 Alpha  occ. eigenvalues --  -19.12929 -10.30910 -10.30410 -10.25978 -10.25935
 Alpha  occ. eigenvalues --  -10.25773 -10.25430 -10.25405 -10.24448 -10.24403
 Alpha  occ. eigenvalues --  -10.24299 -10.24256 -10.24186  -1.10592  -1.08725
 Alpha  occ. eigenvalues --   -1.06039  -1.05570  -1.04541  -1.03674  -1.02486
 Alpha  occ. eigenvalues --   -1.02157  -1.01904  -1.00244  -0.99660  -0.82316
 Alpha  occ. eigenvalues --   -0.80944  -0.79213  -0.78462  -0.72024  -0.70236
 Alpha  occ. eigenvalues --   -0.67458  -0.64926  -0.63167  -0.62859  -0.61514
 Alpha  occ. eigenvalues --   -0.60490  -0.56579  -0.56245  -0.55141  -0.54948
 Alpha  occ. eigenvalues --   -0.54073  -0.53929  -0.53003  -0.51680  -0.51272
 Alpha  occ. eigenvalues --   -0.50703  -0.50235  -0.49681  -0.48628  -0.46550
 Alpha  occ. eigenvalues --   -0.46360  -0.45479  -0.44438  -0.44053  -0.43783
 Alpha  occ. eigenvalues --   -0.42493  -0.41923  -0.41149  -0.40416  -0.39444
 Alpha  occ. eigenvalues --   -0.39410  -0.37682  -0.37614  -0.36855  -0.35960
 Alpha  occ. eigenvalues --   -0.35668  -0.34717  -0.33947  -0.33790  -0.33429
 Alpha  occ. eigenvalues --   -0.32993  -0.31774  -0.30732  -0.30044  -0.29798
 Alpha  occ. eigenvalues --   -0.29597  -0.28671  -0.28058  -0.27414  -0.26849
 Alpha  occ. eigenvalues --   -0.26033
 Alpha virt. eigenvalues --   -0.01895  -0.01859  -0.01647  -0.00328   0.00233
 Alpha virt. eigenvalues --    0.01027   0.01822   0.02074   0.03096   0.03598
 Alpha virt. eigenvalues --    0.03818   0.04411   0.04761   0.05402   0.05640

 Mulliken atomic charges:
              1
     1  O   -0.538375
     2  C    0.097864
     3  C    0.129613
     4  O   -0.565980
     5  H    0.343040
     6  C   -0.009753
     7  O   -0.596966
     8  H    0.438135
     9  C   -0.236031
    10  O   -0.545175
    11  H    0.343643
    12  C    0.087672
    13  O   -0.270431
    14  C    0.103479
    15  O   -0.231292
    16  C    0.214804
    17  C    0.234256
    18  O   -0.599840
    19  H    0.404535
    20  C    0.097323
    21  O   -0.564562
    22  H    0.337414
    23  C   -0.193353
    24  O   -0.540596
    25  H    0.358141
    26  C   -0.102783
    27  O   -0.302558
    28  C    0.162878
    29  O   -0.564623
    30  H    0.342081
    31  H    0.338038
    32  H    0.150291
    33  H    0.144254
    34  H    0.113868
    35  H    0.123933
    36  H    0.107036
    37  H    0.124071
    38  H    0.135183
    39  H    0.151036
    40  H    0.153184
    41  H    0.128765
    42  H    0.115987
    43  H    0.126437
    44  H    0.129922
    45  H    0.125436
 Sum of Mulliken atomic charges =   0.00000

 Dipole moment (field-independent basis, Debye):
    X=             -1.5362    Y=             -0.4870    Z=              0.7859  Tot=              1.7930
 Quadrupole moment (field-independent basis, Debye-Ang):
   XX=           -118.6570   YY=           -137.2487   ZZ=           -138.9781
   XY=            -14.5821   XZ=             -0.2955   YZ=             -1.6411

  Exact polarizability: 234.110   1.990 197.555  -0.279  -0.834 143.263
 Approx polarizability: 274.341   1.643 257.104  -1.273   0.097 239.190

 ******    6 imaginary frequencies (negative Signs) ******

                     1                      2                      3
                     A                      A                      A
 Frequencies --  -290.4335              -247.0624              -235.7624
 Red. masses --     1.6569                 1.1763                 1.2209
 Frc consts  --     0.0823                 0.0423                 0.0400
 IR Inten    --    16.4651                83.5488               140.5189
 Raman Activ --     0.1431                 0.7989                 1.0127

                     4                      5                      6
                     A                      A                      A
 Frequencies --  -206.0405               -71.8586               -43.4831
 Red. masses --     1.8617                 6.8887                 6.1205
 Frc consts  --     0.0466                 0.0210                 0.0068
 IR Inten    --     5.7514                 1.1923                 0.2751
 Raman Activ --     0.1029                 0.0272                 0.0272

                     7                      8                      9
                     A                      A                      A
 Frequencies --    40.3361                48.3649                69.2166
 Red. masses --     6.5161                 6.8502                 7.5537
 Frc consts  --     0.0062                 0.0094                 0.0213
 IR Inten    --     0.8896                 2.3958                 1.7987
 Raman Activ --     0.0119                 0.0341                 0.0086

                    10                     11                     12
                     A                      A                      A
 Frequencies --    87.2720               105.7301               132.6341
 Red. masses --     6.2093                 6.8022                 5.3756
 Frc consts  --     0.0279                 0.0448                 0.0557
 IR Inten    --     2.2130                 1.6661                 2.2155
 Raman Activ --     0.4162                 0.0677                 0.0949

                    13                     14                     15
                     A                      A                      A
 Frequencies --   160.3583               174.2781               186.9370
 Red. masses --     6.2420                 5.9237                 7.7908
 Frc consts  --     0.0946                 0.1060                 0.1604
 IR Inten    --    11.1403                 2.0248                 0.4471
 Raman Activ --     0.2200                 0.2504                 0.5605

                    16                     17                     18
                     A                      A                      A
 Frequencies --   210.6904               232.4529               268.2184
 Red. masses --     7.1274                 5.4848                 5.1534
 Frc consts  --     0.1864                 0.1746                 0.2184
 IR Inten    --     0.6178                 1.9346                 6.1010
 Raman Activ --     2.7462                 0.8745                 0.3007

                    19                     20                     21
                     A                      A                      A
 Frequencies --   273.0999               295.4638               307.2174
 Red. masses --     4.0304                 5.5863                 4.7213
 Frc consts  --     0.1771                 0.2873                 0.2625
 IR Inten    --    11.7390                 1.2164                 7.1847
 Raman Activ --     0.1664                 0.0715                 0.9759

                    22                     23                     24
                     A                      A                      A
 Frequencies --   319.6576               324.8705               325.0490
 Red. masses --     6.7935                 5.4177                 4.8629
 Frc consts  --     0.4090                 0.3369                 0.3027
 IR Inten    --     4.2389                 1.8576                 9.1656
 Raman Activ --     1.7709                 2.6963                 0.6540

                    25                     26                     27
                     A                      A                      A
 Frequencies --   341.0936               360.0733               388.3745
 Red. masses --     6.8255                 5.1487                 4.8811
 Frc consts  --     0.4679                 0.3933                 0.4338
 IR Inten    --     7.2208                 5.7198                 3.5537
 Raman Activ --     4.2077                 0.7582                 0.1696

                    28                     29                     30
                     A                      A                      A
 Frequencies --   402.5721               423.1187               433.0547
 Red. masses --     5.7032                 5.9637                 4.9770
 Frc consts  --     0.5446                 0.6291                 0.5499
 IR Inten    --    19.4024                 9.1252                 2.1677
 Raman Activ --     2.8250                 4.0842                 1.6250

                    31                     32                     33
                     A                      A                      A
 Frequencies --   445.9669               481.1683               485.2052
 Red. masses --     6.1435                 4.9505                 3.7778
 Frc consts  --     0.7199                 0.6753                 0.5240
 IR Inten    --     1.9399                 5.2465                15.7422
 Raman Activ --     4.9459                 4.1648                 1.4906

                    34                     35                     36
                     A                      A                      A
 Frequencies --   517.0351               524.5222               572.2116
 Red. masses --     3.0909                 4.1619                 4.4133
 Frc consts  --     0.4868                 0.6746                 0.8514
 IR Inten    --     4.1796                10.3737                 7.7788
 Raman Activ --     3.7322                 0.8688                 1.2374

                    37                     38                     39
                     A                      A                      A
 Frequencies --   583.1334               594.4178               613.6144
 Red. masses --     3.3070                 5.8114                 4.2259
 Frc consts  --     0.6625                 1.2098                 0.9375
 IR Inten    --    29.5962                 6.9943                18.9052
 Raman Activ --     0.8623                 1.3110                 0.3231

                    40                     41                     42
                     A                      A                      A
 Frequencies --   634.3525               674.3419               682.0686
 Red. masses --     3.7116                 1.1950                 3.5215
 Frc consts  --     0.8800                 0.3202                 0.9652
 IR Inten    --    29.9375               101.2317                18.1648
 Raman Activ --     0.9102                 1.4586                 1.2445

                    43                     44                     45
                     A                      A                      A
 Frequencies --   724.7653               747.2256               783.1759
 Red. masses --     1.0490                 1.0650                 1.0959
 Frc consts  --     0.3246                 0.3504                 0.3961
 IR Inten    --    84.2985                93.4930               100.7580
 Raman Activ --     1.8213                 1.6756                 1.5114

                    46                     47                     48
                     A                      A                      A
 Frequencies --   792.5676               829.5598               846.9326
 Red. masses --     1.0600                 1.0813                 1.8024
 Frc consts  --     0.3923                 0.4384                 0.7617
 IR Inten    --    80.3043                54.5855                 4.2888
 Raman Activ --     0.9646                 0.2236                 1.1302

                    49                     50                     51
                     A                      A                      A
 Frequencies --   877.4151               922.9767               961.3113
 Red. masses --     1.6671                 6.1323                 4.4142
 Frc consts  --     0.7562                 3.0779                 2.4034
 IR Inten    --    28.1274                93.5372               115.6467
 Raman Activ --     0.9730                 2.6734                 0.8313

                    52                     53                     54
                     A                      A                      A
 Frequencies --   970.3218               978.4861               980.7526
 Red. masses --     5.9336                 4.7851                 4.9111
 Frc consts  --     3.2915                 2.6993                 2.7832
 IR Inten    --    28.5962                97.8538                30.0510
 Raman Activ --     2.3337                 0.7869                 0.7424

                    55                     56                     57
                     A                      A                      A
 Frequencies --   997.0180              1001.7543              1024.3072
 Red. masses --     6.3286                 6.7054                 6.0035
 Frc consts  --     3.7065                 3.9646                 3.7112
 IR Inten    --    41.8610               278.4103                93.9891
 Raman Activ --     2.2248                 2.1277                 1.6189

                    58                     59                     60
                     A                      A                      A
 Frequencies --  1033.0791              1044.6953              1061.7810
 Red. masses --     6.7023                 5.3018                 4.6787
 Frc consts  --     4.2144                 3.4092                 3.1078
 IR Inten    --   507.7481               162.9582                53.0592
 Raman Activ --     3.8082                 3.7034                 5.4910

                    61                     62                     63
                     A                      A                      A
 Frequencies --  1062.3784              1072.9442              1075.1421
 Red. masses --     4.1612                 5.1488                 3.7932
 Frc consts  --     2.7671                 3.4923                 2.5833
 IR Inten    --    44.0137                49.4374                38.2322
 Raman Activ --     7.4118                 1.4742                32.1049

                    64                     65                     66
                     A                      A                      A
 Frequencies --  1096.8030              1103.7477              1105.8734
 Red. masses --     2.4869                 2.5982                 2.7757
 Frc consts  --     1.7626                 1.8649                 2.0000
 IR Inten    --    42.9151                 8.1298                13.9763
 Raman Activ --     3.8451                 5.9318                 3.0740

                    67                     68                     69
                     A                      A                      A
 Frequencies --  1108.4881              1119.4054              1126.5875
 Red. masses --     2.3261                 2.5986                 2.1564
 Frc consts  --     1.6840                 1.9185                 1.6125
 IR Inten    --    65.0825                 0.1497                10.1343
 Raman Activ --     4.8208                 0.9410                10.6064

                    70                     71                     72
                     A                      A                      A
 Frequencies --  1143.9500              1147.5723              1151.9447
 Red. masses --     2.3839                 2.2205                 1.7745
 Frc consts  --     1.8380                 1.7229                 1.3874
 IR Inten    --    30.5895                44.1205                18.3446
 Raman Activ --     2.6416                 2.5677                 2.7598

                    73                     74                     75
                     A                      A                      A
 Frequencies --  1157.7196              1176.1027              1190.2488
 Red. masses --     1.8732                 2.0848                 1.5751
 Frc consts  --     1.4792                 1.6991                 1.3147
 IR Inten    --    24.3503                11.8709                40.9485
 Raman Activ --     5.1185                 2.1643                 1.6379

                    76                     77                     78
                     A                      A                      A
 Frequencies --  1193.1288              1203.2715              1233.0077
 Red. masses --     1.3734                 1.4797                 1.4373
 Frc consts  --     1.1519                 1.2623                 1.2874
 IR Inten    --     4.8208                 6.6313                 2.2765
 Raman Activ --     1.8354                 0.5412                 0.8804

                    79                     80                     81
                     A                      A                      A
 Frequencies --  1239.3223              1250.0494              1253.9759
 Red. masses --     1.2210                 1.3021                 1.2030
 Frc consts  --     1.1049                 1.1988                 1.1146
 IR Inten    --     3.9144                19.6279                12.5716
 Raman Activ --     1.7615                 0.4622                 1.2967

                    82                     83                     84
                     A                      A                      A
 Frequencies --  1258.2021              1278.2530              1282.5883
 Red. masses --     1.1933                 1.2513                 1.2960
 Frc consts  --     1.1130                 1.2046                 1.2561
 IR Inten    --     9.7130                11.2734                16.1133
 Raman Activ --     4.5379                 5.1399                 1.0700

                    85                     86                     87
                     A                      A                      A
 Frequencies --  1286.4327              1294.0723              1295.1111
 Red. masses --     1.2503                 1.2582                 1.2733
 Frc consts  --     1.2191                 1.2414                 1.2583
 IR Inten    --     3.2816                70.6696                 6.1187
 Raman Activ --     4.0723                 6.2365                 1.5200

                    88                     89                     90
                     A                      A                      A
 Frequencies --  1311.3406              1315.8911              1324.4114
 Red. masses --     1.3192                 1.2732                 1.2859
 Frc consts  --     1.3366                 1.2989                 1.3290
 IR Inten    --     6.1857                11.5990                42.2839
 Raman Activ --     1.5627                 5.4728                 3.3691

                    91                     92                     93
                     A                      A                      A
 Frequencies --  1335.1049              1339.3757              1346.0181
 Red. masses --     1.1573                 1.3470                 1.1870
 Frc consts  --     1.2154                 1.4237                 1.2671
 IR Inten    --    53.1310                19.0005                13.3802
 Raman Activ --     5.5963                 3.0913                 8.9172

                    94                     95                     96
                     A                      A                      A
 Frequencies --  1355.7174              1370.9727              1373.4370
 Red. masses --     1.5035                 1.4531                 1.3400
 Frc consts  --     1.6281                 1.6092                 1.4892
 IR Inten    --     8.6639                 1.9962                 6.0980
 Raman Activ --     8.5312                 5.0338                 4.4350

                    97                     98                     99
                     A                      A                      A
 Frequencies --  1375.6464              1381.3808              1400.0435
 Red. masses --     1.2871                 1.4925                 1.4360
 Frc consts  --     1.4351                 1.6780                 1.6584
 IR Inten    --    40.6588                 9.4976                 5.7826
 Raman Activ --     2.9480                 4.5745                 4.2786

                   100                    101                    102
                     A                      A                      A
 Frequencies --  1403.9125              1434.5864              1453.5908
 Red. masses --     1.5877                 1.3186                 1.3941
 Frc consts  --     1.8437                 1.5989                 1.7355
 IR Inten    --    23.1182                34.2962                11.2624
 Raman Activ --     1.0222                 1.0194                 2.3254

                   103                    104                    105
                     A                      A                      A
 Frequencies --  1462.8028              1472.8433              1475.4060
 Red. masses --     1.4648                 1.1112                 1.3250
 Frc consts  --     1.8467                 1.4203                 1.6993
 IR Inten    --    37.2749                 1.0127                16.7376
 Raman Activ --     2.2346                 3.2160                 3.0331

                   106                    107                    108
                     A                      A                      A
 Frequencies --  1479.5730              1480.9726              3244.7587
 Red. masses --     1.1061                 1.2581                 1.0699
 Frc consts  --     1.4267                 1.6258                 6.6370
 IR Inten    --    22.8131                50.7802               165.5015
 Raman Activ --     3.5174                 2.3086               186.5017

                   109                    110                    111
                     A                      A                      A
 Frequencies --  3252.2815              3256.9539              3257.8195
 Red. masses --     1.0760                 1.0618                 1.0650
 Frc consts  --     6.7054                 6.6361                 6.6594
 IR Inten    --    61.2840                33.8608               734.2119
 Raman Activ --    20.9199                87.2074               206.6812

                   112                    113                    114
                     A                      A                      A
 Frequencies --  3264.9839              3271.7568              3274.3699
 Red. masses --     1.0676                 1.0809                 1.0829
 Frc consts  --     6.7056                 6.8168                 6.8403
 IR Inten    --   410.4801                99.8256                18.8297
 Raman Activ --   169.1008                62.3709                 1.0843

                   115                    116                    117
                     A                      A                      A
 Frequencies --  3276.1027              3278.7274              3284.0018
 Red. masses --     1.0839                 1.0800                 1.0826
 Frc consts  --     6.8544                 6.8403                 6.8790
 IR Inten    --    11.6948               277.9973                66.8352
 Raman Activ --    93.3451                63.2433                67.7394

                   118                    119                    120
                     A                      A                      A
 Frequencies --  3288.3913              3296.2720              3301.8728
 Red. masses --     1.0856                 1.0862                 1.0887
 Frc consts  --     6.9167                 6.9536                 6.9931
 IR Inten    --    14.7807                 9.2950                 4.4651
 Raman Activ --    27.3214                79.2238                18.2541

                   121                    122                    123
                     A                      A                      A
 Frequencies --  3303.8024              3311.7173              3322.3675
 Red. masses --     1.0867                 1.1040                 1.1081
 Frc consts  --     6.9889                 7.1341                 7.2068
 IR Inten    --   106.1655                60.4704                27.6186
 Raman Activ --     8.2155                32.7990                50.4427

                   124                    125                    126
                     A                      A                      A
 Frequencies --  3365.3725              3367.4979              3373.4885
 Red. masses --     1.0661                 1.0679                 1.0666
 Frc consts  --     7.1141                 7.1347                 7.1517
 IR Inten    --    41.8457                52.7259                61.7872
 Raman Activ --   143.0353               172.2983               123.9684

                   127                    128                    129
                     A                      A                      A
 Frequencies --  3377.7679              3892.0836              3892.3428
 Red. masses --     1.0655                 1.0675                 1.0674
 Frc consts  --     7.1621                 9.5274                 9.5283
 IR Inten    --    38.5756                98.3596                63.9189
 Raman Activ --   116.6942                74.1766               127.8750

 - Thermochemistry -
 -------------------
 Temperature   298.150 Kelvin.  Pressure   1.00000 Atm.
 Atom     1 has atomic number  8 and mass  15.99491

 Molecular mass:   342.11621 amu.
 Principal axes and moments of inertia in atomic units:
                           1         2         3
     Eigenvalues --  4445.20253********************
           X            0.99997  -0.00712  -0.00054
           Y            0.00712   0.99997  -0.00259
           Z            0.00055   0.00258   1.00000
 This molecule is an asymmetric top.
 Rotational symmetry number  1.
 Warning -- assumption of classical behavior for rotation
           may cause significant error
 Rotational temperatures (Kelvin)      0.01948     0.00705     0.00530
 Rotational constants (GHZ):           0.40600     0.14699     0.11046
    6 imaginary frequencies ignored.
 Zero-point vibrational energy     974061.6 (Joules/Mol)
                                  232.80630 (Kcal/Mol)
 Warning -- explicit consideration of  33 degrees of freedom as
           vibrations may cause significant error
 Vibrational temperatures:     58.03    69.59    99.59   125.56   152.12
          (Kelvin)            190.83   230.72   250.75   268.96   303.14
                              334.45   385.91   392.93   425.11   442.02
                              459.92   467.42   467.67   490.76   518.06
                              558.78   579.21   608.77   623.07   641.65
                              692.29   698.10   743.90   754.67   823.28
                              839.00   855.23   882.85   912.69   970.23
                              981.34  1042.77  1075.09  1126.81  1140.33
                             1193.55  1218.55  1262.40  1327.96  1383.11
                             1396.07  1407.82  1411.08  1434.48  1441.30
                             1473.75  1486.37  1503.08  1527.66  1528.52
                             1543.73  1546.89  1578.05  1588.04  1591.10
                             1594.87  1610.57  1620.91  1645.89  1651.10
                             1657.39  1665.70  1692.15  1712.50  1716.64
                             1731.24  1774.02  1783.11  1798.54  1804.19
                             1810.27  1839.12  1845.36  1850.89  1861.88
                             1863.37  1886.72  1893.27  1905.53  1920.92
                             1927.06  1936.62  1950.57  1972.52  1976.07
                             1979.25  1987.50  2014.35  2019.91  2064.05
                             2091.39  2104.64  2119.09  2122.78  2128.77
                             2130.79  4668.48  4679.30  4686.02  4687.27
                             4697.58  4707.32  4711.08  4713.58  4717.35
                             4724.94  4731.26  4742.59  4750.65  4753.43
                             4764.82  4780.14  4842.01  4845.07  4853.69
                             4859.85  5599.83  5600.21

 Zero-point correction=                           0.371000 (Hartree/Particle)
 Thermal correction to Energy=                    0.390028
 Thermal correction to Enthalpy=                  0.390973
 Thermal correction to Gibbs Free Energy=         0.324304
 Sum of electronic and zero-point Energies=          -1297.624744
 Sum of electronic and thermal Energies=             -1297.605716
 Sum of electronic and thermal Enthalpies=           -1297.604772
 Sum of electronic and thermal Free Energies=        -1297.671441

                     E (Thermal)             CV                S
                      KCal/Mol        Cal/Mol-Kelvin    Cal/Mol-Kelvin
 Total                  244.746             77.796            140.316
 Electronic               0.000              0.000              0.000
 Translational            0.889              2.981             43.384
 Rotational               0.889              2.981             35.143
 Vibrational            242.969             71.835             61.789
 Vibration     1          0.594              1.981              5.243
 Vibration     2          0.595              1.978              4.883
 Vibration     3          0.598              1.969              4.176
 Vibration     4          0.601              1.958              3.720
 Vibration     5          0.605              1.945              3.346
 Vibration     6          0.613              1.921              2.907
 Vibration     7          0.622              1.891              2.546
 Vibration     8          0.627              1.874              2.389
 Vibration     9          0.632              1.858              2.258
 Vibration    10          0.643              1.825              2.038
 Vibration    11          0.653              1.791              1.860
 Vibration    12          0.673              1.732              1.608
 Vibration    13          0.676              1.723              1.577
 Vibration    14          0.690              1.682              1.442
 Vibration    15          0.697              1.660              1.377
 Vibration    16          0.706              1.636              1.312
 Vibration    17          0.709              1.626              1.285
 Vibration    18          0.709              1.625              1.285
 Vibration    19          0.721              1.593              1.207
 Vibration    20          0.735              1.555              1.122
 Vibration    21          0.757              1.495              1.006
 Vibration    22          0.768              1.465              0.953
 Vibration    23          0.785              1.420              0.881
 Vibration    24          0.794              1.398              0.849
 Vibration    25          0.805              1.370              0.808
 Vibration    26          0.837              1.292              0.707
 Vibration    27          0.841              1.283              0.696
 Vibration    28          0.872              1.212              0.617
 Vibration    29          0.879              1.196              0.600
 Vibration    30          0.928              1.091              0.500
 Vibration    31          0.940              1.068              0.480
 Vibration    32          0.952              1.044              0.459
 Vibration    33          0.973              1.003              0.427

 Normal termination of Gaussian 09 at Sun Mar 27 16:15:06 2016.
