 Gaussian 09, Revision B.01,
 Gaussian 09:  EM64L-G09RevB.01 12-Aug-2010

 -------------------------------------------------
 # freq=raman b3lyp/6-31+g(2d,p) geom=connectivity
 -------------------------------------------------

 -----------------
 280 7308/7308.com
 -----------------
 Symbolic Z-matrix:
 Charge =  0 Multiplicity = 1

                         Standard orientation:
 ---------------------------------------------------------------------
 Center     Atomic      Atomic             Coordinates (Angstroms)
 Number     Number       Type             X           Y           Z
 ---------------------------------------------------------------------
      1          8           0        4.980514   -0.394252   -0.274106
      2          6           0        3.676415   -0.067691    0.226531
      3          6           0        3.239329    1.300605   -0.271396
      4          8           0        4.091468    2.399805    0.083934
      5          1           0        5.021793    2.095048   -0.119102
      6          6           0        1.841465    1.566533    0.262556
      7          8           0        1.379910    2.769297   -0.368017
      8          1           0        0.404655    2.927858   -0.216137
      9          6           0        3.086442   -2.577852    0.037339
     10          8           0        4.354038   -3.117461   -0.362005
     11          1           0        4.457493   -4.111157   -0.314477
     12          6           0        2.696676   -1.133915   -0.237518
     13          8           0        1.443193   -0.759707    0.351848
     14          6           0        0.839893    0.471909   -0.068221
     15          8           0       -0.363785    0.731035    0.669647
     16          6           0       -1.533001    0.276510   -0.027664
     17          6           0       -1.930424   -1.116356    0.434839
     18          8           0       -0.967790   -2.175741    0.329114
     19          1           0       -0.095154   -1.791719    0.630183
     20          6           0       -3.214543   -1.575238   -0.235486
     21          8           0       -3.550233   -2.943443    0.038616
     22          1           0       -4.459175   -3.109447   -0.344639
     23          6           0       -2.561676    2.570812   -0.206302
     24          8           0       -1.339401    3.300100   -0.022714
     25          1           0       -1.596064    4.266218   -0.034123
     26          6           0       -2.700225    1.167868    0.362313
     27          8           0       -4.046382    0.813139    0.011979
     28          6           0       -4.304273   -0.591526    0.156590
     29          8           0       -5.387853   -0.726479   -0.775178
     30          1           0       -6.201970   -0.898661   -0.296465
     31          1           0        5.556912   -0.622090    0.459008
     32          1           0        2.335621   -3.190035   -0.416973
     33          1           0        3.012369   -2.719487    1.095334
     34          1           0        2.594470   -1.032174   -1.297755
     35          1           0        3.703879   -0.058793    1.296142
     36          1           0        3.183858    1.259713   -1.339174
     37          1           0        1.882089    1.708885    1.322266
     38          1           0        0.639610    0.452476   -1.119129
     39          1           0       -3.348873    3.161625    0.213412
     40          1           0       -2.735070    2.503819   -1.260032
     41          1           0       -2.672166    1.256659    1.428253
     42          1           0       -1.377509    0.295990   -1.086127
     43          1           0       -2.153175   -1.024967    1.477398
     44          1           0       -3.071685   -1.489559   -1.292440
     45          1           0       -4.647821   -0.800512    1.148154
 ---------------------------------------------------------------------

 SCF Done:  E(RB3LYP) =  -1297.98108606     A.U. after   13 cycles

 The electronic state is 1-A.
 Alpha  occ. eigenvalues --  -19.19336 -19.18530 -19.18415 -19.18064 -19.17491
 Alpha  occ. eigenvalues --  -19.16650 -19.15998 -19.15928 -19.15086 -19.13972
 Alpha  occ. eigenvalues --  -19.12522 -10.30699 -10.30557 -10.26266 -10.25993
 Alpha  occ. eigenvalues --  -10.25984 -10.25021 -10.24866 -10.24631 -10.24453
 Alpha  occ. eigenvalues --  -10.24266 -10.23703 -10.23524  -1.10097  -1.09365
 Alpha  occ. eigenvalues --   -1.05514  -1.04896  -1.03876  -1.03557  -1.02570
 Alpha  occ. eigenvalues --   -1.02265  -1.01670  -1.00563  -0.99354  -0.82743
 Alpha  occ. eigenvalues --   -0.80066  -0.79614  -0.78301  -0.72036  -0.69932
 Alpha  occ. eigenvalues --   -0.67182  -0.64933  -0.63177  -0.62621  -0.61448
 Alpha  occ. eigenvalues --   -0.60099  -0.56382  -0.56118  -0.55030  -0.54860
 Alpha  occ. eigenvalues --   -0.53370  -0.52932  -0.52828  -0.51634  -0.51332
 Alpha  occ. eigenvalues --   -0.50608  -0.49733  -0.49404  -0.48524  -0.46413
 Alpha  occ. eigenvalues --   -0.45915  -0.45146  -0.44817  -0.43471  -0.43162
 Alpha  occ. eigenvalues --   -0.42055  -0.41600  -0.40614  -0.40372  -0.39339
 Alpha  occ. eigenvalues --   -0.38505  -0.38066  -0.37619  -0.37058  -0.35481
 Alpha  occ. eigenvalues --   -0.35149  -0.34931  -0.34393  -0.34145  -0.33044
 Alpha  occ. eigenvalues --   -0.32667  -0.31113  -0.30684  -0.29968  -0.29671
 Alpha  occ. eigenvalues --   -0.28948  -0.28534  -0.28488  -0.27298  -0.26781
 Alpha  occ. eigenvalues --   -0.25864
 Alpha virt. eigenvalues --   -0.01865  -0.01846  -0.01723  -0.00027   0.00335
 Alpha virt. eigenvalues --    0.00920   0.01777   0.02268   0.03033   0.03592
 Alpha virt. eigenvalues --    0.03734   0.04325   0.04993   0.05322   0.05532

 Mulliken atomic charges:
              1
     1  O   -0.542869
     2  C   -0.039179
     3  C    0.205598
     4  O   -0.548616
     5  H    0.340468
     6  C   -0.020727
     7  O   -0.598226
     8  H    0.412693
     9  C   -0.238037
    10  O   -0.541263
    11  H    0.352415
    12  C    0.207358
    13  O   -0.311657
    14  C    0.036126
    15  O   -0.203549
    16  C    0.329908
    17  C    0.162805
    18  O   -0.555265
    19  H    0.372660
    20  C    0.018232
    21  O   -0.533068
    22  H    0.336902
    23  C   -0.317646
    24  O   -0.553237
    25  H    0.361641
    26  C   -0.032034
    27  O   -0.232687
    28  C    0.185446
    29  O   -0.514388
    30  H    0.328776
    31  H    0.337709
    32  H    0.154825
    33  H    0.140991
    34  H    0.112265
    35  H    0.116938
    36  H    0.119281
    37  H    0.128927
    38  H    0.125001
    39  H    0.141983
    40  H    0.156651
    41  H    0.121788
    42  H    0.110216
    43  H    0.108809
    44  H    0.126039
    45  H    0.129999
 Sum of Mulliken atomic charges =   0.00000

 Dipole moment (field-independent basis, Debye):
    X=             -2.8536    Y=             -0.8049    Z=              1.5682  Tot=              3.3541
 Quadrupole moment (field-independent basis, Debye-Ang):
   XX=           -116.5314   YY=           -136.5895   ZZ=           -138.3102
   XY=            -17.7946   XZ=              2.3308   YZ=              0.5135

  Exact polarizability: 232.887  -0.224 199.928   1.516  -0.359 143.270
 Approx polarizability: 274.002  -2.672 261.198   1.697   0.390 237.953

 ******    8 imaginary frequencies (negative Signs) ******

                     1                      2                      3
                     A                      A                      A
 Frequencies --  -330.1086              -266.8962              -245.0816
 Red. masses --     1.7267                 1.7938                 1.1627
 Frc consts  --     0.1109                 0.0753                 0.0411
 IR Inten    --    13.6404                 0.9687                94.3987
 Raman Activ --     0.0977                 0.0801                 0.8391

                     4                      5                      6
                     A                      A                      A
 Frequencies --  -212.7588               -82.8797               -72.9995
 Red. masses --     1.1958                 5.6424                 6.7418
 Frc consts  --     0.0319                 0.0228                 0.0212
 IR Inten    --    93.9096                 0.7620                 1.9755
 Raman Activ --     1.3151                 0.0689                 0.0710

                     7                      8                      9
                     A                      A                      A
 Frequencies --   -55.5870                -2.5228                45.8090
 Red. masses --     6.4543                 6.8203                 7.0900
 Frc consts  --     0.0118                 0.0000                 0.0088
 IR Inten    --     1.3267                 0.4703                 1.0112
 Raman Activ --     0.0391                 0.0296                 0.0222

                    10                     11                     12
                     A                      A                      A
 Frequencies --    76.9919                87.0957               101.0512
 Red. masses --     6.3701                 6.5199                 6.4665
 Frc consts  --     0.0222                 0.0291                 0.0389
 IR Inten    --     1.1780                 0.2925                 2.8434
 Raman Activ --     0.3790                 0.1046                 0.0335

                    13                     14                     15
                     A                      A                      A
 Frequencies --   154.4400               182.0111               195.4854
 Red. masses --     6.2035                 5.6963                 7.7908
 Frc consts  --     0.0872                 0.1112                 0.1754
 IR Inten    --     2.5830                 1.5549                 0.2571
 Raman Activ --     0.6919                 0.3167                 1.3342

                    16                     17                     18
                     A                      A                      A
 Frequencies --   203.7824               229.2798               250.4009
 Red. masses --     6.6872                 6.0340                 4.5708
 Frc consts  --     0.1636                 0.1869                 0.1689
 IR Inten    --     1.8054                 0.3118                26.1643
 Raman Activ --     1.0024                 0.7841                 0.2544

                    19                     20                     21
                     A                      A                      A
 Frequencies --   269.9146               277.4628               301.2660
 Red. masses --     4.7479                 4.8242                 5.1736
 Frc consts  --     0.2038                 0.2188                 0.2767
 IR Inten    --     0.6866                 1.6688                 1.4001
 Raman Activ --     0.1945                 0.1149                 0.5466

                    22                     23                     24
                     A                      A                      A
 Frequencies --   312.7503               315.8603               328.3503
 Red. masses --     5.9815                 5.7950                 5.3012
 Frc consts  --     0.3447                 0.3406                 0.3367
 IR Inten    --     2.2403                 9.1393                 2.0159
 Raman Activ --     3.6681                 1.9979                 1.9783

                    25                     26                     27
                     A                      A                      A
 Frequencies --   340.9411               354.3228               390.6142
 Red. masses --     6.4819                 4.1890                 5.7174
 Frc consts  --     0.4439                 0.3099                 0.5140
 IR Inten    --     6.2729                 2.8742                 1.7736
 Raman Activ --     3.0182                 0.5935                 1.1682

                    28                     29                     30
                     A                      A                      A
 Frequencies --   409.6691               421.0404               431.8389
 Red. masses --     5.6587                 5.8285                 4.8084
 Frc consts  --     0.5595                 0.6088                 0.5283
 IR Inten    --    17.1569                 3.5555                 6.0571
 Raman Activ --     2.3375                 5.5395                 0.8915

                    31                     32                     33
                     A                      A                      A
 Frequencies --   436.6061               470.3704               475.2356
 Red. masses --     6.0685                 4.9742                 3.3651
 Frc consts  --     0.6816                 0.6484                 0.4478
 IR Inten    --     7.0747                 5.0619                 8.9294
 Raman Activ --     4.1361                 4.1258                 0.4008

                    34                     35                     36
                     A                      A                      A
 Frequencies --   497.0212               534.5885               566.7534
 Red. masses --     4.9583                 3.1456                 4.0484
 Frc consts  --     0.7217                 0.5297                 0.7662
 IR Inten    --     1.3924                14.9043                11.6230
 Raman Activ --     2.7887                 2.7078                 1.1743

                    37                     38                     39
                     A                      A                      A
 Frequencies --   598.5510               602.5813               608.6349
 Red. masses --     6.1490                 1.4502                 1.7731
 Frc consts  --     1.2980                 0.3102                 0.3870
 IR Inten    --     9.3962                53.1366                78.7865
 Raman Activ --     0.8061                 1.1951                 0.8133

                    40                     41                     42
                     A                      A                      A
 Frequencies --   619.5982               635.6518               675.2891
 Red. masses --     4.8358                 3.9494                 5.7288
 Frc consts  --     1.0938                 0.9402                 1.5392
 IR Inten    --    13.0268                30.2368                15.0412
 Raman Activ --     0.9954                 1.0192                 0.5464

                    43                     44                     45
                     A                      A                      A
 Frequencies --   706.5692               735.1465               746.1428
 Red. masses --     1.0758                 1.0692                 1.0731
 Frc consts  --     0.3164                 0.3404                 0.3520
 IR Inten    --    99.8493                93.0818                96.6735
 Raman Activ --     1.7211                 1.9461                 1.7453

                    46                     47                     48
                     A                      A                      A
 Frequencies --   777.2259               828.0139               850.7906
 Red. masses --     1.1015                 1.0712                 1.8109
 Frc consts  --     0.3920                 0.4327                 0.7723
 IR Inten    --   135.9691                65.0876                 6.1976
 Raman Activ --     3.0695                 0.4880                 1.2398

                    49                     50                     51
                     A                      A                      A
 Frequencies --   868.3870               922.4465               947.5604
 Red. masses --     1.6457                 6.3827                 6.5389
 Frc consts  --     0.7312                 3.1999                 3.4592
 IR Inten    --     3.1500               119.2814               100.0066
 Raman Activ --     0.6984                 2.3445                 0.5916

                    52                     53                     54
                     A                      A                      A
 Frequencies --   971.4441               974.4713               987.2574
 Red. masses --     5.3038                 6.2495                 6.0052
 Frc consts  --     2.9490                 3.4965                 3.4486
 IR Inten    --   144.1743                27.9446                 8.9769
 Raman Activ --     2.2456                 2.1997                 2.0126

                    55                     56                     57
                     A                      A                      A
 Frequencies --   992.4854              1003.3844              1012.7786
 Red. masses --     5.9449                 6.6559                 5.6701
 Frc consts  --     3.4502                 3.9481                 3.4266
 IR Inten    --   479.5134                11.9560               155.2615
 Raman Activ --     0.8283                 1.4824                 1.8880

                    58                     59                     60
                     A                      A                      A
 Frequencies --  1029.3823              1057.5997              1062.8714
 Red. masses --     6.2407                 4.3044                 3.3426
 Frc consts  --     3.8962                 2.8367                 2.2248
 IR Inten    --   249.6289               209.0160                 3.8391
 Raman Activ --     1.9245                 4.9986                16.1746

                    61                     62                     63
                     A                      A                      A
 Frequencies --  1067.1782              1073.1002              1079.4025
 Red. masses --     5.8703                 4.9666                 3.7126
 Frc consts  --     3.9390                 3.3697                 2.5486
 IR Inten    --     9.4934                26.5229                21.3519
 Raman Activ --     1.0263                 1.3161                18.6570

                    64                     65                     66
                     A                      A                      A
 Frequencies --  1099.5258              1102.8694              1104.5859
 Red. masses --     2.7515                 2.1522                 2.3373
 Frc consts  --     1.9599                 1.5423                 1.6802
 IR Inten    --    53.1695                 7.2705                91.7615
 Raman Activ --     3.5293                 6.8337                 2.1864

                    67                     68                     69
                     A                      A                      A
 Frequencies --  1120.8672              1124.5511              1130.7109
 Red. masses --     2.5615                 2.8917                 2.5446
 Frc consts  --     1.8961                 2.1546                 1.9168
 IR Inten    --     5.5530                10.2035                87.9350
 Raman Activ --     3.6290                12.7925                 6.2112

                    70                     71                     72
                     A                      A                      A
 Frequencies --  1135.9450              1157.6857              1159.7381
 Red. masses --     2.5887                 1.8865                 2.9120
 Frc consts  --     1.9681                 1.4897                 2.3076
 IR Inten    --    41.1071                 4.9896                12.2813
 Raman Activ --     4.4299                 1.8337                 4.4657

                    73                     74                     75
                     A                      A                      A
 Frequencies --  1166.5959              1173.3567              1184.8073
 Red. masses --     1.9055                 1.8247                 1.9793
 Frc consts  --     1.5279                 1.4801                 1.6370
 IR Inten    --    44.3176                 0.3847                19.5936
 Raman Activ --     2.2368                 1.2263                 2.6069

                    76                     77                     78
                     A                      A                      A
 Frequencies --  1202.2832              1219.4004              1225.2165
 Red. masses --     1.2424                 1.3975                 1.4286
 Frc consts  --     1.0581                 1.2244                 1.2635
 IR Inten    --     9.4690                 8.3353                 5.1610
 Raman Activ --     2.0595                 0.6392                 2.1692

                    79                     80                     81
                     A                      A                      A
 Frequencies --  1244.2487              1257.7132              1262.9699
 Red. masses --     1.2726                 1.1912                 1.1936
 Frc consts  --     1.1608                 1.1102                 1.1218
 IR Inten    --     6.9484                15.9864                15.2822
 Raman Activ --     1.9492                 2.2645                 1.2752

                    82                     83                     84
                     A                      A                      A
 Frequencies --  1269.8764              1279.4702              1286.7528
 Red. masses --     1.2227                 1.2059                 1.3350
 Frc consts  --     1.1617                 1.1631                 1.3023
 IR Inten    --    19.0637                 8.6082                26.7714
 Raman Activ --     0.7369                 2.8154                 2.6338

                    85                     86                     87
                     A                      A                      A
 Frequencies --  1293.4450              1300.0548              1301.3993
 Red. masses --     1.2432                 1.2451                 1.3360
 Frc consts  --     1.2255                 1.2399                 1.3331
 IR Inten    --    32.5989                13.9265                11.6216
 Raman Activ --     8.7170                 1.3211                 4.0263

                    88                     89                     90
                     A                      A                      A
 Frequencies --  1303.7925              1322.2421              1331.6668
 Red. masses --     1.2825                 1.2110                 1.2319
 Frc consts  --     1.2845                 1.2475                 1.2871
 IR Inten    --    18.1710                 3.5659                23.8643
 Raman Activ --     1.0379                11.3290                 4.2824

                    91                     92                     93
                     A                      A                      A
 Frequencies --  1337.9529              1349.7944              1355.2993
 Red. masses --     1.2250                 1.2863                 1.2484
 Frc consts  --     1.2920                 1.3808                 1.3511
 IR Inten    --    22.0531                11.2908                38.6623
 Raman Activ --     4.0199                 4.1150                 2.6102

                    94                     95                     96
                     A                      A                      A
 Frequencies --  1366.0695              1371.1092              1381.7234
 Red. masses --     1.2067                 1.3227                 1.5076
 Frc consts  --     1.3267                 1.4651                 1.6958
 IR Inten    --    15.3419                22.6629                 9.8225
 Raman Activ --     1.3206                 7.6391                 4.4052

                    97                     98                     99
                     A                      A                      A
 Frequencies --  1383.3808              1385.7794              1406.7582
 Red. masses --     1.4531                 1.4931                 1.4284
 Frc consts  --     1.6384                 1.6894                 1.6655
 IR Inten    --    11.0001                 4.1100                 2.1116
 Raman Activ --     6.2744                 3.6618                 6.0017

                   100                    101                    102
                     A                      A                      A
 Frequencies --  1427.1717              1440.1084              1441.0471
 Red. masses --     1.3519                 1.4211                 1.3915
 Frc consts  --     1.6224                 1.7365                 1.7026
 IR Inten    --    24.5685                34.4956                10.6473
 Raman Activ --     0.7459                 0.6555                 2.9936

                   103                    104                    105
                     A                      A                      A
 Frequencies --  1464.9115              1473.2922              1475.5627
 Red. masses --     1.4268                 1.0824                 1.0917
 Frc consts  --     1.8039                 1.3842                 1.4004
 IR Inten    --    37.2667                 1.5270                 1.4994
 Raman Activ --     0.6568                 5.1927                 3.8513

                   106                    107                    108
                     A                      A                      A
 Frequencies --  1495.4311              1515.3397              3254.7077
 Red. masses --     1.2969                 1.2842                 1.0587
 Frc consts  --     1.7088                 1.7375                 6.6078
 IR Inten    --    34.9087                44.9194                32.2534
 Raman Activ --     0.8456                 1.2694                99.8410

                   109                    110                    111
                     A                      A                      A
 Frequencies --  3256.2545              3259.9301              3267.8272
 Red. masses --     1.0791                 1.0601                 1.0822
 Frc consts  --     6.7414                 6.6375                 6.8087
 IR Inten    --     5.4486               103.1911                13.7865
 Raman Activ --    17.2914               117.5143                28.8871

                   112                    113                    114
                     A                      A                      A
 Frequencies --  3270.0424              3274.9884              3275.5111
 Red. masses --     1.0818                 1.0830                 1.0821
 Frc consts  --     6.8157                 6.8439                 6.8400
 IR Inten    --     9.3529                 2.7998                 6.2705
 Raman Activ --    60.1690                53.7019               187.8528

                   115                    116                    117
                     A                      A                      A
 Frequencies --  3282.3366              3286.3813              3290.8902
 Red. masses --     1.0839                 1.0850                 1.0857
 Frc consts  --     6.8802                 6.9042                 6.9275
 IR Inten    --    54.4665                48.1974                30.7097
 Raman Activ --    67.3071                62.5115                66.6398

                   118                    119                    120
                     A                      A                      A
 Frequencies --  3293.7212              3296.9336              3303.1839
 Red. masses --     1.0768                 1.0856                 1.0867
 Frc consts  --     6.8827                 6.9524                 6.9857
 IR Inten    --   234.9007                67.4160               101.5066
 Raman Activ --   175.9385                17.0447                54.1440

                   121                    122                    123
                     A                      A                      A
 Frequencies --  3307.3733              3314.1854              3315.7589
 Red. masses --     1.0979                 1.0726                 1.1029
 Frc consts  --     7.0757                 6.9410                 7.1445
 IR Inten    --   119.3087               611.7972                82.1915
 Raman Activ --    17.4899               116.7628                42.7030

                   124                    125                    126
                     A                      A                      A
 Frequencies --  3364.0893              3367.0539              3371.3997
 Red. masses --     1.0686                 1.0658                 1.0653
 Frc consts  --     7.1251                 7.1189                 7.1341
 IR Inten    --    65.4267                36.2801                34.4901
 Raman Activ --   205.2154               132.7749               120.3696

                   127                    128                    129
                     A                      A                      A
 Frequencies --  3377.3239              3888.1375              3888.5350
 Red. masses --     1.0674                 1.0674                 1.0676
 Frc consts  --     7.1736                 9.5077                 9.5107
 IR Inten    --    55.6646                73.2333                58.5156
 Raman Activ --   152.8725               113.5417               105.3325

 - Thermochemistry -
 -------------------
 Temperature   298.150 Kelvin.  Pressure   1.00000 Atm.
 Atom     1 has atomic number  8 and mass  15.99491

 Molecular mass:   342.11621 amu.
 Principal axes and moments of inertia in atomic units:
                           1         2         3
     Eigenvalues --  4479.47299********************
           X            0.99996  -0.00863   0.00030
           Y            0.00863   0.99996  -0.00143
           Z           -0.00029   0.00143   1.00000
 This molecule is an asymmetric top.
 Rotational symmetry number  1.
 Warning -- assumption of classical behavior for rotation
           may cause significant error
 Rotational temperatures (Kelvin)      0.01934     0.00706     0.00530
 Rotational constants (GHZ):           0.40289     0.14707     0.11034
    8 imaginary frequencies ignored.
 Zero-point vibrational energy     973365.3 (Joules/Mol)
                                  232.63988 (Kcal/Mol)
 Warning -- explicit consideration of  32 degrees of freedom as
           vibrations may cause significant error
 Vibrational temperatures:     65.91   110.77   125.31   145.39   222.20
          (Kelvin)            261.87   281.26   293.20   329.88   360.27
                              388.35   399.21   433.45   449.98   454.45
                              472.42   490.54   509.79   562.01   589.42
                              605.78   621.32   628.18   676.76   683.76
                              715.10   769.15   815.43   861.18   866.98
                              875.69   891.46   914.56   971.59  1016.59
                             1057.71  1073.53  1118.25  1191.33  1224.10
                             1249.41  1327.19  1363.33  1397.69  1402.05
                             1420.44  1427.96  1443.64  1457.16  1481.05
                             1521.65  1529.23  1535.43  1543.95  1553.02
                             1581.97  1586.78  1589.25  1612.68  1617.98
                             1626.84  1634.37  1665.65  1668.60  1678.47
                             1688.20  1704.67  1729.82  1754.44  1762.81
                             1790.19  1809.57  1817.13  1827.07  1840.87
                             1851.35  1860.98  1870.49  1872.42  1875.86
                             1902.41  1915.97  1925.01  1942.05  1949.97
                             1965.47  1972.72  1987.99  1990.37  1993.82
                             2024.01  2053.38  2071.99  2073.34  2107.68
                             2119.74  2123.00  2151.59  2180.23  4682.79
                             4685.02  4690.31  4701.67  4704.86  4711.97
                             4712.72  4722.54  4728.36  4734.85  4738.92
                             4743.55  4752.54  4758.57  4768.37  4770.63
                             4840.17  4844.43  4850.69  4859.21  5594.16
                             5594.73

 Zero-point correction=                           0.370735 (Hartree/Particle)
 Thermal correction to Energy=                    0.388380
 Thermal correction to Enthalpy=                  0.389324
 Thermal correction to Gibbs Free Energy=         0.326254
 Sum of electronic and zero-point Energies=          -1297.610351
 Sum of electronic and thermal Energies=             -1297.592706
 Sum of electronic and thermal Enthalpies=           -1297.591762
 Sum of electronic and thermal Free Energies=        -1297.654832

                     E (Thermal)             CV                S
                      KCal/Mol        Cal/Mol-Kelvin    Cal/Mol-Kelvin
 Total                  243.712             74.234            132.742
 Electronic               0.000              0.000              0.000
 Translational            0.889              2.981             43.384
 Rotational               0.889              2.981             35.151
 Vibrational            241.935             68.272             54.206
 Vibration     1          0.595              1.979              4.991
 Vibration     2          0.599              1.965              3.966
 Vibration     3          0.601              1.958              3.724
 Vibration     4          0.604              1.948              3.434
 Vibration     5          0.620              1.898              2.617
 Vibration     6          0.630              1.864              2.308
 Vibration     7          0.636              1.846              2.175
 Vibration     8          0.639              1.835              2.099
 Vibration     9          0.652              1.796              1.885
 Vibration    10          0.663              1.762              1.728
 Vibration    11          0.674              1.729              1.597
 Vibration    12          0.678              1.715              1.549
 Vibration    13          0.693              1.671              1.410
 Vibration    14          0.701              1.649              1.348
 Vibration    15          0.703              1.643              1.331
 Vibration    16          0.712              1.619              1.268
 Vibration    17          0.720              1.594              1.208
 Vibration    18          0.730              1.566              1.147
 Vibration    19          0.758              1.490              0.998
 Vibration    20          0.774              1.449              0.928
 Vibration    21          0.784              1.425              0.888
 Vibration    22          0.793              1.401              0.853
 Vibration    23          0.797              1.390              0.837
 Vibration    24          0.827              1.316              0.737
 Vibration    25          0.832              1.305              0.723
 Vibration    26          0.853              1.257              0.666
 Vibration    27          0.890              1.174              0.577
 Vibration    28          0.923              1.103              0.511
 Vibration    29          0.957              1.035              0.452
 Vibration    30          0.961              1.026              0.445
 Vibration    31          0.968              1.014              0.435
 Vibration    32          0.980              0.991              0.417

 Normal termination of Gaussian 09 at Mon Mar 21 22:38:51 2016.
