 Gaussian 09, Revision B.01,
 Gaussian 09:  EM64L-G09RevB.01 12-Aug-2010

 --------------------------------------------------
 # freq=raman b3lyp/6-31+g(2df,p) geom=connectivity
 --------------------------------------------------

 ------------
 500 5000.com
 ------------
 Symbolic Z-matrix:
 Charge =  0 Multiplicity = 1

                         Standard orientation:
 ---------------------------------------------------------------------
 Center     Atomic      Atomic             Coordinates (Angstroms)
 Number     Number       Type             X           Y           Z
 ---------------------------------------------------------------------
      1          8           0       -5.213428    0.153060   -0.260068
      2          6           0       -3.867887   -0.076740    0.181890
      3          6           0       -3.188934   -1.249153   -0.508545
      4          8           0       -4.030703   -2.410044   -0.558161
      5          1           0       -4.869723   -1.963866   -0.869356
      6          6           0       -1.980458   -1.677825    0.306938
      7          8           0       -1.452344   -3.012120    0.269076
      8          1           0       -2.125551   -3.688990    0.565603
      9          6           0       -3.263079    2.412783    0.534319
     10          8           0       -2.657989    3.631499    0.077571
     11          1           0       -3.143580    4.454980    0.371711
     12          6           0       -2.836852    1.033069    0.058861
     13          8           0       -1.463080    0.788698    0.392433
     14          6           0       -1.057745   -0.520086   -0.034803
     15          8           0        0.215386   -0.758201    0.582592
     16          6           0        1.358486   -0.310679   -0.161072
     17          6           0        1.584935    1.187033   -0.028990
     18          8           0        0.660421    1.988982   -0.778441
     19          1           0       -0.244229    1.897295   -0.362602
     20          6           0        3.014854    1.565492   -0.375599
     21          8           0        3.166783    2.990859   -0.312581
     22          1           0        2.346746    3.328882   -0.775882
     23          6           0        2.424466   -2.479268   -0.205408
     24          8           0        3.575155   -3.329671   -0.091087
     25          1           0        3.515481   -4.188505   -0.600506
     26          6           0        2.499689   -1.109066    0.449142
     27          8           0        3.821809   -0.611245    0.197559
     28          6           0        4.051960    0.788219    0.418397
     29          8           0        5.393740    0.885320   -0.080231
     30          1           0        6.013388    0.766386    0.643296
     31          1           0        4.006441    1.026336    1.460572
     32          1           0        3.158445    1.293144   -1.400347
     33          1           0        1.440295    1.431190    1.002691
     34          1           0        1.244697   -0.571245   -1.192604
     35          1           0        2.346793   -1.206053    1.503711
     36          1           0        2.227889   -2.333570   -1.247055
     37          1           0        1.590674   -2.998757    0.218646
     38          1           0       -3.163398    2.408100    1.599656
     39          1           0       -4.307757    2.496097    0.318432
     40          1           0       -5.811255    0.090107    0.488424
     41          1           0       -2.787903    1.162545   -1.002148
     42          1           0       -3.930634   -0.322628    1.221362
     43          1           0       -2.886362   -0.970876   -1.496427
     44          1           0       -2.261550   -1.529652    1.328668
     45          1           0       -0.921518   -0.500699   -1.095918
 ---------------------------------------------------------------------

 SCF Done:  E(RB3LYP) =  -1297.97503556     A.U. after   14 cycles

 The electronic state is 1-A.
 Alpha  occ. eigenvalues --  -19.21243 -19.21027 -19.18060 -19.18007 -19.17406
 Alpha  occ. eigenvalues --  -19.17252 -19.15055 -19.14785 -19.14683 -19.13884
 Alpha  occ. eigenvalues --  -19.13706 -10.31432 -10.28858 -10.28517 -10.27760
 Alpha  occ. eigenvalues --  -10.26719 -10.26588 -10.25723 -10.24474 -10.23670
 Alpha  occ. eigenvalues --  -10.23653 -10.23180 -10.21976  -1.11186  -1.08737
 Alpha  occ. eigenvalues --   -1.06350  -1.05553  -1.04665  -1.03389  -1.03176
 Alpha  occ. eigenvalues --   -1.02628  -1.00398  -0.99819  -0.98933  -0.84615
 Alpha  occ. eigenvalues --   -0.82662  -0.78962  -0.77432  -0.72731  -0.69043
 Alpha  occ. eigenvalues --   -0.67513  -0.64555  -0.64029  -0.63391  -0.61285
 Alpha  occ. eigenvalues --   -0.59052  -0.58734  -0.55733  -0.55395  -0.54597
 Alpha  occ. eigenvalues --   -0.53671  -0.53566  -0.52950  -0.52388  -0.51729
 Alpha  occ. eigenvalues --   -0.50291  -0.50148  -0.48168  -0.47526  -0.46942
 Alpha  occ. eigenvalues --   -0.46196  -0.45678  -0.44845  -0.44270  -0.43561
 Alpha  occ. eigenvalues --   -0.42730  -0.42253  -0.41120  -0.40385  -0.39453
 Alpha  occ. eigenvalues --   -0.39125  -0.38790  -0.37724  -0.36983  -0.35662
 Alpha  occ. eigenvalues --   -0.35138  -0.34659  -0.34088  -0.33372  -0.32728
 Alpha  occ. eigenvalues --   -0.31913  -0.31569  -0.31135  -0.30825  -0.29868
 Alpha  occ. eigenvalues --   -0.29496  -0.29352  -0.27843  -0.26800  -0.26440
 Alpha  occ. eigenvalues --   -0.25841
 Alpha virt. eigenvalues --   -0.04392  -0.02315  -0.01199  -0.00559   0.00266
 Alpha virt. eigenvalues --    0.01098   0.01350   0.02447   0.02778   0.03289
 Alpha virt. eigenvalues --    0.03546   0.03818   0.04668   0.04926   0.05529

 Mulliken atomic charges:
              1
     1  O   -0.462215
     2  C   -0.445189
     3  C    0.025988
     4  O   -0.456822
     5  H    0.346883
     6  C   -0.281280
     7  O   -0.440043
     8  H    0.365735
     9  C   -0.521149
    10  O   -0.456548
    11  H    0.354487
    12  C    0.546122
    13  O   -0.112636
    14  C    0.106518
    15  O   -0.010654
    16  C    0.177138
    17  C    0.031156
    18  O   -0.499960
    19  H    0.409058
    20  C   -0.170613
    21  O   -0.445306
    22  H    0.359268
    23  C   -0.346440
    24  O   -0.460574
    25  H    0.340855
    26  C   -0.174996
    27  O    0.000127
    28  C    0.106439
    29  O   -0.424114
    30  H    0.336504
    31  H    0.119854
    32  H    0.132614
    33  H    0.132233
    34  H    0.106962
    35  H    0.124280
    36  H    0.122055
    37  H    0.174395
    38  H    0.147398
    39  H    0.156723
    40  H    0.361126
    41  H    0.124799
    42  H    0.126698
    43  H    0.129996
    44  H    0.117592
    45  H    0.125536
 Sum of Mulliken atomic charges =   0.00000

 Dipole moment (field-independent basis, Debye):
    X=             -9.7225    Y=             -0.7445    Z=              2.6391  Tot=             10.1018
 Quadrupole moment (field-independent basis, Debye-Ang):
   XX=           -128.4734   YY=           -138.3572   ZZ=           -133.9859
   XY=            -11.4982   XZ=             -3.6285   YZ=              7.6406

  Exact polarizability: 225.905  -0.480 204.834   1.095   0.921 144.225
 Approx polarizability: 270.797  -2.253 266.569   0.946  -1.007 238.513

 ******    5 imaginary frequencies (negative Signs) ******

                     1                      2                      3
                     A                      A                      A
 Frequencies --  -325.3644              -293.6997              -289.7060
 Red. masses --     1.6652                 1.1310                 1.6898
 Frc consts  --     0.1039                 0.0575                 0.0836
 IR Inten    --     5.1503                94.3819                10.0284
 Raman Activ --     0.0573                 1.7148                 0.4097

                     4                      5                      6
                     A                      A                      A
 Frequencies --   -87.4228               -54.8037                14.5623
 Red. masses --     5.0326                 6.8596                 6.8415
 Frc consts  --     0.0227                 0.0121                 0.0009
 IR Inten    --     5.7641                 0.9063                 1.6356
 Raman Activ --     0.0285                 0.0205                 0.0427

                     7                      8                      9
                     A                      A                      A
 Frequencies --    40.5679                45.5486                59.5840
 Red. masses --     6.7760                 3.8279                 4.2511
 Frc consts  --     0.0066                 0.0047                 0.0089
 IR Inten    --     1.7449                15.4073                10.9380
 Raman Activ --     0.1128                 0.0946                 0.1022

                    10                     11                     12
                     A                      A                      A
 Frequencies --    96.2265               107.3694               129.4182
 Red. masses --     3.7505                 6.0372                 5.3198
 Frc consts  --     0.0205                 0.0410                 0.0525
 IR Inten    --    20.8933                 2.2467                11.4504
 Raman Activ --     0.3216                 0.6535                 0.3437

                    13                     14                     15
                     A                      A                      A
 Frequencies --   153.3500               163.0707               181.8365
 Red. masses --     3.1285                 5.8047                 4.6953
 Frc consts  --     0.0433                 0.0909                 0.0915
 IR Inten    --    30.1044                 1.5103                 8.1487
 Raman Activ --     0.3653                 0.1039                 0.3902

                    16                     17                     18
                     A                      A                      A
 Frequencies --   191.2847               213.4210               252.0754
 Red. masses --     6.6022                 5.8549                 4.6204
 Frc consts  --     0.1423                 0.1571                 0.1730
 IR Inten    --     2.3939                 1.3405                 7.6298
 Raman Activ --     0.5170                 1.2060                 1.0351

                    19                     20                     21
                     A                      A                      A
 Frequencies --   270.8776               278.3817               288.9497
 Red. masses --     4.3190                 5.1984                 6.0874
 Frc consts  --     0.1867                 0.2374                 0.2995
 IR Inten    --     4.7902                 0.5167                 1.4672
 Raman Activ --     0.6551                 0.2645                 0.1344

                    22                     23                     24
                     A                      A                      A
 Frequencies --   294.8082               320.3901               327.9351
 Red. masses --     5.0390                 5.0692                 5.1853
 Frc consts  --     0.2580                 0.3066                 0.3286
 IR Inten    --     3.5896                 1.1824                 4.3565
 Raman Activ --     0.5520                 3.9336                 0.4765

                    25                     26                     27
                     A                      A                      A
 Frequencies --   344.0097               361.1422               381.9287
 Red. masses --     7.2261                 4.1815                 5.2258
 Frc consts  --     0.5038                 0.3213                 0.4491
 IR Inten    --     1.3027                 2.7695                 8.5035
 Raman Activ --     4.6715                 2.1359                 0.8075

                    28                     29                     30
                     A                      A                      A
 Frequencies --   407.9811               418.6155               427.5420
 Red. masses --     5.3418                 6.3580                 4.6343
 Frc consts  --     0.5239                 0.6564                 0.4991
 IR Inten    --     3.2759                 3.3049                 8.6076
 Raman Activ --     5.0239                 3.2632                 1.8778

                    31                     32                     33
                     A                      A                      A
 Frequencies --   443.7653               472.5517               490.0170
 Red. masses --     5.7276                 4.0085                 4.4516
 Frc consts  --     0.6645                 0.5274                 0.6298
 IR Inten    --    13.9512                 2.1824                13.8089
 Raman Activ --     1.4681                 2.0236                 0.8155

                    34                     35                     36
                     A                      A                      A
 Frequencies --   523.4539               541.1680               553.0240
 Red. masses --     5.1676                 5.0131                 4.9734
 Frc consts  --     0.8342                 0.8650                 0.8962
 IR Inten    --    10.9603                 0.7255                 7.1990
 Raman Activ --     2.0122                 6.4793                 4.5328

                    37                     38                     39
                     A                      A                      A
 Frequencies --   592.1126               594.5920               607.2935
 Red. masses --     3.6374                 3.1207                 3.0561
 Frc consts  --     0.7514                 0.6500                 0.6641
 IR Inten    --    23.0400                 3.0312                61.2397
 Raman Activ --     1.5355                 0.3736                 0.3420

                    40                     41                     42
                     A                      A                      A
 Frequencies --   636.6883               644.2658               655.6796
 Red. masses --     1.0658                 1.0568                 1.1407
 Frc consts  --     0.2545                 0.2584                 0.2889
 IR Inten    --   103.8367               100.5990                93.2433
 Raman Activ --     1.9541                 2.0531                 1.4873

                    43                     44                     45
                     A                      A                      A
 Frequencies --   660.0424               671.4953               763.6395
 Red. masses --     3.2047                 3.8626                 1.0882
 Frc consts  --     0.8226                 1.0261                 0.3739
 IR Inten    --    50.9464                11.8190               113.1618
 Raman Activ --     0.4051                 0.3245                 1.3569

                    46                     47                     48
                     A                      A                      A
 Frequencies --   791.2424               815.1035               839.0093
 Red. masses --     1.1378                 1.7207                 1.4349
 Frc consts  --     0.4197                 0.6736                 0.5951
 IR Inten    --    95.5393                70.0912                30.1964
 Raman Activ --     1.3663                 2.5256                 2.0177

                    49                     50                     51
                     A                      A                      A
 Frequencies --   851.3538               941.6926               943.8532
 Red. masses --     2.5312                 6.1847                 5.3424
 Frc consts  --     1.0809                 3.2314                 2.8041
 IR Inten    --    29.7396               311.0454                21.3493
 Raman Activ --     4.0884                 2.8428                 1.3269

                    52                     53                     54
                     A                      A                      A
 Frequencies --   950.2046               972.1787               980.4073
 Red. masses --     6.8598                 4.7260                 3.7092
 Frc consts  --     3.6492                 2.6317                 2.1006
 IR Inten    --    17.5555                58.6050                35.0493
 Raman Activ --     4.8745                 3.7343                 0.8681

                    55                     56                     57
                     A                      A                      A
 Frequencies --   985.1219              1007.9471              1018.3343
 Red. masses --     6.4241                 3.9080                 5.4783
 Frc consts  --     3.6732                 2.3393                 3.3472
 IR Inten    --   211.2275                 8.6220               271.2261
 Raman Activ --     2.1371                 1.8351                 2.1221

                    58                     59                     60
                     A                      A                      A
 Frequencies --  1033.9314              1051.2471              1060.9104
 Red. masses --     3.8632                 3.2499                 5.5089
 Frc consts  --     2.4332                 2.1161                 3.6532
 IR Inten    --   164.3355               275.5510                62.5419
 Raman Activ --     1.4129                 3.9620                12.0395

                    61                     62                     63
                     A                      A                      A
 Frequencies --  1065.2889              1070.5539              1082.9026
 Red. masses --     4.6599                 4.4837                 3.9325
 Frc consts  --     3.1157                 3.0277                 2.7170
 IR Inten    --     2.8069                42.2109                83.5290
 Raman Activ --    10.2111                 2.1337                10.1251

                    64                     65                     66
                     A                      A                      A
 Frequencies --  1093.0329              1100.9124              1114.1788
 Red. masses --     3.4862                 3.2043                 2.8459
 Frc consts  --     2.4539                 2.2881                 2.0815
 IR Inten    --    78.3855                15.9010                66.6315
 Raman Activ --     6.8908                 5.5268                 2.4559

                    67                     68                     69
                     A                      A                      A
 Frequencies --  1120.8643              1134.5123              1140.3154
 Red. masses --     2.8075                 2.7938                 2.2912
 Frc consts  --     2.0781                 2.1186                 1.7554
 IR Inten    --    19.0229                18.0957                 7.9409
 Raman Activ --     1.4969                 7.4241                 5.4198

                    70                     71                     72
                     A                      A                      A
 Frequencies --  1144.3210              1155.4663              1167.2890
 Red. masses --     2.7702                 2.3439                 1.5377
 Frc consts  --     2.1373                 1.8438                 1.2344
 IR Inten    --    30.5042                37.8127                23.2221
 Raman Activ --     5.6558                 2.9289                 1.9076

                    73                     74                     75
                     A                      A                      A
 Frequencies --  1178.7709              1183.5856              1185.4438
 Red. masses --     2.4483                 2.0943                 2.0704
 Frc consts  --     2.0044                 1.7286                 1.7142
 IR Inten    --    43.4626                 9.2613                23.7996
 Raman Activ --     0.3588                 1.6732                 1.3723

                    76                     77                     78
                     A                      A                      A
 Frequencies --  1208.0746              1221.1244              1229.3858
 Red. masses --     1.5016                 1.2698                 1.4431
 Frc consts  --     1.2912                 1.1156                 1.2850
 IR Inten    --     9.9367                 4.5498                 1.9967
 Raman Activ --     2.4617                 3.2264                 1.9253

                    79                     80                     81
                     A                      A                      A
 Frequencies --  1244.5486              1254.2961              1270.6283
 Red. masses --     1.3639                 1.3314                 1.1238
 Frc consts  --     1.2446                 1.2341                 1.0690
 IR Inten    --    15.0223                 3.2946                16.1451
 Raman Activ --     1.1692                 6.7102                 5.9201

                    82                     83                     84
                     A                      A                      A
 Frequencies --  1277.5492              1283.4738              1296.0212
 Red. masses --     1.1541                 1.2002                 1.2959
 Frc consts  --     1.1098                 1.1649                 1.2825
 IR Inten    --     6.5976                 1.1968                24.0500
 Raman Activ --     1.2330                 2.4843                 2.3779

                    85                     86                     87
                     A                      A                      A
 Frequencies --  1299.8515              1303.9687              1314.2489
 Red. masses --     1.1843                 1.2366                 1.3118
 Frc consts  --     1.1789                 1.2388                 1.3350
 IR Inten    --    19.6637                26.3038                 9.9884
 Raman Activ --     0.6320                 4.7686                 1.1056

                    88                     89                     90
                     A                      A                      A
 Frequencies --  1318.5528              1321.0617              1330.0175
 Red. masses --     1.2953                 1.2374                 1.3403
 Frc consts  --     1.3268                 1.2724                 1.3969
 IR Inten    --    24.2589                 7.4600                13.2323
 Raman Activ --     5.7984                 1.8555                 4.6540

                    91                     92                     93
                     A                      A                      A
 Frequencies --  1336.8900              1340.2007              1357.0723
 Red. masses --     1.3953                 1.3760                 1.2975
 Frc consts  --     1.4693                 1.4562                 1.4079
 IR Inten    --     0.7802                16.1575                33.0108
 Raman Activ --     7.9920                 2.2892                 1.9514

                    94                     95                     96
                     A                      A                      A
 Frequencies --  1368.7307              1377.5617              1379.8391
 Red. masses --     1.2158                 1.2293                 1.4469
 Frc consts  --     1.3420                 1.3744                 1.6231
 IR Inten    --    29.8301                34.0648                25.9431
 Raman Activ --     5.2360                 0.7501                 6.4100

                    97                     98                     99
                     A                      A                      A
 Frequencies --  1393.0954              1398.3573              1420.9196
 Red. masses --     1.2965                 1.2504                 1.2664
 Frc consts  --     1.4825                 1.4406                 1.5064
 IR Inten    --     3.9376                 5.2362                 4.3392
 Raman Activ --     5.8094                 6.2366                 4.4060

                   100                    101                    102
                     A                      A                      A
 Frequencies --  1434.8780              1439.0151              1445.9949
 Red. masses --     1.3724                 1.3470                 1.2228
 Frc consts  --     1.6648                 1.6434                 1.5064
 IR Inten    --     6.8443                 5.0072                 5.1137
 Raman Activ --     0.3688                 0.3432                 1.9709

                   103                    104                    105
                     A                      A                      A
 Frequencies --  1448.9356              1461.9644              1462.6426
 Red. masses --     1.0919                 1.0830                 1.3164
 Frc consts  --     1.3506                 1.3638                 1.6592
 IR Inten    --     5.2386                 2.7715                11.5343
 Raman Activ --     5.1718                 3.9483                 3.1658

                   106                    107                    108
                     A                      A                      A
 Frequencies --  1492.0165              1499.9023              3237.3841
 Red. masses --     1.3910                 1.2953                 1.0762
 Frc consts  --     1.8244                 1.7170                 6.6454
 IR Inten    --    94.0954                70.8277                13.8348
 Raman Activ --     2.3520                 1.8659                78.7230

                   109                    110                    111
                     A                      A                      A
 Frequencies --  3249.5749              3253.5401              3257.5159
 Red. masses --     1.0611                 1.0717                 1.0729
 Frc consts  --     6.6020                 6.6839                 6.7080
 IR Inten    --    36.9113                24.5368                17.7916
 Raman Activ --    44.2923                43.8059                16.7939

                   112                    113                    114
                     A                      A                      A
 Frequencies --  3263.9926              3264.6533              3269.8722
 Red. masses --     1.0812                 1.0804                 1.0816
 Frc consts  --     6.7867                 6.7842                 6.8137
 IR Inten    --    14.4755                 8.4158                 3.4990
 Raman Activ --   182.1338                46.7231                 7.1254

                   115                    116                    117
                     A                      A                      A
 Frequencies --  3273.1557              3276.7545              3281.2933
 Red. masses --     1.0828                 1.0836                 1.0854
 Frc consts  --     6.8351                 6.8552                 6.8857
 IR Inten    --    13.4544                10.9988                 3.6289
 Raman Activ --    54.4882               162.8985                14.7187

                   118                    119                    120
                     A                      A                      A
 Frequencies --  3288.8150              3290.8961              3301.4466
 Red. masses --     1.0856                 1.0865                 1.0937
 Frc consts  --     6.9186                 6.9330                 7.0233
 IR Inten    --    36.8965               111.0342               202.7126
 Raman Activ --    15.3154                16.1826                32.4722

                   121                    122                    123
                     A                      A                      A
 Frequencies --  3304.5485              3312.6842              3343.4100
 Red. masses --     1.0768                 1.1028                 1.0649
 Frc consts  --     6.9279                 7.1305                 7.0134
 IR Inten    --   372.9996                80.3855                43.6436
 Raman Activ --   241.4386                22.7155                39.1588

                   124                    125                    126
                     A                      A                      A
 Frequencies --  3349.4391              3350.3718              3357.2557
 Red. masses --     1.0642                 1.0678                 1.0681
 Frc consts  --     7.0345                 7.0621                 7.0931
 IR Inten    --    47.5821                45.2900                77.5842
 Raman Activ --    74.9053               190.1168               183.0230

                   127                    128                    129
                     A                      A                      A
 Frequencies --  3373.4043              3876.0100              3877.7743
 Red. masses --     1.0670                 1.0678                 1.0673
 Frc consts  --     7.1538                 9.4515                 9.4557
 IR Inten    --    78.3787               109.6993                68.9029
 Raman Activ --   120.4709                82.9530               131.3697

 - Thermochemistry -
 -------------------
 Temperature   298.150 Kelvin.  Pressure   1.00000 Atm.
 Atom     1 has atomic number  8 and mass  15.99491

 Molecular mass:   342.11621 amu.
 Principal axes and moments of inertia in atomic units:
                           1         2         3
     Eigenvalues --  4741.80035********************
           X            0.99996  -0.00825  -0.00145
           Y            0.00825   0.99995   0.00529
           Z            0.00140  -0.00530   0.99998
 This molecule is an asymmetric top.
 Rotational symmetry number  1.
 Warning -- assumption of classical behavior for rotation
           may cause significant error
 Rotational temperatures (Kelvin)      0.01827     0.00726     0.00535
 Rotational constants (GHZ):           0.38060     0.15130     0.11143
    5 imaginary frequencies ignored.
 Zero-point vibrational energy     973073.9 (Joules/Mol)
                                  232.57024 (Kcal/Mol)
 Warning -- explicit consideration of  34 degrees of freedom as
           vibrations may cause significant error
 Vibrational temperatures:     20.95    58.37    65.53    85.73   138.45
          (Kelvin)            154.48   186.20   220.64   234.62   261.62
                              275.22   307.06   362.68   389.73   400.53
                              415.73   424.16   460.97   471.82   494.95
                              519.60   549.51   586.99   602.29   615.14
                              638.48   679.90   705.02   753.13   778.62
                              795.68   851.92   855.48   873.76   916.05
                              926.95   943.38   949.65   966.13  1098.71
                             1138.42  1172.75  1207.15  1224.91  1354.88
                             1357.99  1367.13  1398.75  1410.59  1417.37
                             1450.21  1465.15  1487.59  1512.51  1526.41
                             1532.71  1540.29  1558.05  1572.63  1583.97
                             1603.05  1612.67  1632.31  1640.66  1646.42
                             1662.46  1679.47  1695.99  1702.91  1705.59
                             1738.15  1756.92  1768.81  1790.63  1804.65
                             1828.15  1838.11  1846.63  1864.68  1870.19
                             1876.12  1890.91  1897.10  1900.71  1913.60
                             1923.48  1928.25  1952.52  1969.30  1982.00
                             1985.28  2004.35  2011.92  2044.38  2064.47
                             2070.42  2080.46  2084.69  2103.44  2104.41
                             2146.68  2158.02  4657.87  4675.41  4681.11
                             4686.83  4696.15  4697.10  4704.61  4709.34
                             4714.51  4721.04  4731.87  4734.86  4750.04
                             4754.50  4766.21  4810.42  4819.09  4820.43
                             4830.34  4853.57  5576.71  5579.25

 Zero-point correction=                           0.370624 (Hartree/Particle)
 Thermal correction to Energy=                    0.390863
 Thermal correction to Enthalpy=                  0.391808
 Thermal correction to Gibbs Free Energy=         0.320932
 Sum of electronic and zero-point Energies=          -1297.604411
 Sum of electronic and thermal Energies=             -1297.584172
 Sum of electronic and thermal Enthalpies=           -1297.583228
 Sum of electronic and thermal Free Energies=        -1297.654104

                     E (Thermal)             CV                S
                      KCal/Mol        Cal/Mol-Kelvin    Cal/Mol-Kelvin
 Total                  245.270             80.350            149.170
 Electronic               0.000              0.000              0.000
 Translational            0.889              2.981             43.384
 Rotational               0.889              2.981             35.170
 Vibrational            243.493             74.388             70.616
 Vibration     1          0.593              1.986              7.264
 Vibration     2          0.594              1.981              5.231
 Vibration     3          0.595              1.979              5.002
 Vibration     4          0.597              1.974              4.471
 Vibration     5          0.603              1.952              3.529
 Vibration     6          0.606              1.943              3.316
 Vibration     7          0.612              1.924              2.955
 Vibration     8          0.619              1.899              2.630
 Vibration     9          0.623              1.888              2.514
 Vibration    10          0.630              1.864              2.309
 Vibration    11          0.634              1.852              2.215
 Vibration    12          0.644              1.820              2.014
 Vibration    13          0.664              1.759              1.716
 Vibration    14          0.675              1.727              1.591
 Vibration    15          0.679              1.714              1.544
 Vibration    16          0.686              1.694              1.480
 Vibration    17          0.689              1.683              1.446
 Vibration    18          0.706              1.635              1.308
 Vibration    19          0.711              1.620              1.270
 Vibration    20          0.723              1.587              1.193
 Vibration    21          0.735              1.552              1.117
 Vibration    22          0.751              1.509              1.032
 Vibration    23          0.773              1.453              0.934
 Vibration    24          0.781              1.430              0.897
 Vibration    25          0.789              1.410              0.867
 Vibration    26          0.803              1.375              0.815
 Vibration    27          0.829              1.311              0.730
 Vibration    28          0.846              1.272              0.684
 Vibration    29          0.878              1.198              0.602
 Vibration    30          0.896              1.159              0.563
 Vibration    31          0.908              1.133              0.538
 Vibration    32          0.950              1.049              0.463
 Vibration    33          0.952              1.043              0.459
 Vibration    34          0.966              1.016              0.437

 Normal termination of Gaussian 09 at Tue Feb 16 09:05:28 2016.
