 Gaussian 09, Revision B.01,
 Gaussian 09:  EM64L-G09RevB.01 12-Aug-2010

 -------------------------------------------------
 # freq=raman b3lyp/6-31+g(2d,p) geom=connectivity
 -------------------------------------------------

 -----------------
 483 7682/7682.com
 -----------------
 Symbolic Z-matrix:
 Charge =  0 Multiplicity = 1

                         Standard orientation:
 ---------------------------------------------------------------------
 Center     Atomic      Atomic             Coordinates (Angstroms)
 Number     Number       Type             X           Y           Z
 ---------------------------------------------------------------------
      1          8           0       -5.102584   -0.437696    0.470186
      2          6           0       -3.828307   -0.158321   -0.128735
      3          6           0       -3.325811    1.220168    0.270081
      4          8           0       -4.296638    2.205473   -0.110652
      5          1           0       -5.216296    1.875425    0.103363
      6          6           0       -1.985442    1.529628   -0.374543
      7          8           0       -1.392264    2.654857    0.289994
      8          1           0       -0.427340    2.737946    0.039720
      9          6           0       -2.793629   -2.641464   -0.033109
     10          8           0       -3.984654   -3.286058    0.440796
     11          1           0       -3.926422   -4.280600    0.347989
     12          6           0       -2.752745   -1.152865    0.274957
     13          8           0       -1.587976   -0.734037   -0.450593
     14          6           0       -0.981606    0.468781    0.043779
     15          8           0        0.249260    0.647861   -0.671866
     16          6           0        1.444229    0.232774    0.007966
     17          6           0        2.071688   -1.052024   -0.505827
     18          8           0        1.129908   -2.129705   -0.391981
     19          1           0        0.271754   -1.898210   -0.850059
     20          6           0        3.420558   -1.477236    0.050728
     21          8           0        3.990633   -2.694209   -0.451580
     22          1           0        4.809432   -2.876772    0.092863
     23          6           0        2.333935    2.635314    0.229032
     24          8           0        1.251380    3.304357   -0.434234
     25          1           0        1.407664    4.286384   -0.325707
     26          6           0        2.628670    1.179446   -0.094183
     27          8           0        3.720588    0.722089    0.718038
     28          6           0        4.401521   -0.316953    0.000267
     29          8           0        5.560016   -0.512752    0.824353
     30          1           0        6.320019   -0.700332    0.268647
     31          1           0        4.648612   -0.025003   -0.999039
     32          1           0        3.248894   -1.659362    1.091046
     33          1           0        2.225006   -0.901168   -1.553986
     34          1           0        1.208435    0.100709    1.043272
     35          1           0        2.961498    1.149196   -1.110652
     36          1           0        3.224353    3.192556    0.025227
     37          1           0        2.147981    2.695853    1.281010
     38          1           0       -5.736223   -0.661491   -0.215392
     39          1           0       -1.946103   -3.109277    0.422689
     40          1           0       -2.730609   -2.774060   -1.092990
     41          1           0       -2.563188   -1.033147    1.321206
     42          1           0       -3.938233   -0.187425   -1.192676
     43          1           0       -3.208691    1.247530    1.333300
     44          1           0       -2.042519    1.654304   -1.435720
     45          1           0       -0.837752    0.442015    1.103727
 ---------------------------------------------------------------------

 SCF Done:  E(RB3LYP) =  -1297.97733816     A.U. after   13 cycles

 The electronic state is 1-A.
 Alpha  occ. eigenvalues --  -19.18802 -19.18612 -19.18529 -19.18461 -19.16673
 Alpha  occ. eigenvalues --  -19.16599 -19.16433 -19.15617 -19.14667 -19.14468
 Alpha  occ. eigenvalues --  -19.12597 -10.31114 -10.29963 -10.26177 -10.25810
 Alpha  occ. eigenvalues --  -10.25174 -10.25079 -10.24926 -10.24920 -10.24648
 Alpha  occ. eigenvalues --  -10.23962 -10.23823 -10.23690  -1.10130  -1.09321
 Alpha  occ. eigenvalues --   -1.05277  -1.04818  -1.03892  -1.03710  -1.03141
 Alpha  occ. eigenvalues --   -1.01994  -1.01482  -1.01022  -0.99717  -0.82340
 Alpha  occ. eigenvalues --   -0.79453  -0.79448  -0.78103  -0.71955  -0.69924
 Alpha  occ. eigenvalues --   -0.67363  -0.64866  -0.63233  -0.61832  -0.61665
 Alpha  occ. eigenvalues --   -0.60521  -0.56792  -0.55453  -0.54839  -0.54726
 Alpha  occ. eigenvalues --   -0.53758  -0.53446  -0.52844  -0.52092  -0.51239
 Alpha  occ. eigenvalues --   -0.50700  -0.49656  -0.48443  -0.48308  -0.46520
 Alpha  occ. eigenvalues --   -0.45909  -0.45252  -0.44723  -0.43759  -0.43684
 Alpha  occ. eigenvalues --   -0.42466  -0.42268  -0.41157  -0.40181  -0.38964
 Alpha  occ. eigenvalues --   -0.38764  -0.37977  -0.37433  -0.35935  -0.35562
 Alpha  occ. eigenvalues --   -0.35356  -0.34844  -0.34159  -0.33725  -0.33543
 Alpha  occ. eigenvalues --   -0.32993  -0.31495  -0.30930  -0.30361  -0.29965
 Alpha  occ. eigenvalues --   -0.28837  -0.28346  -0.28207  -0.27482  -0.26683
 Alpha  occ. eigenvalues --   -0.25344
 Alpha virt. eigenvalues --   -0.02212  -0.01886  -0.01518  -0.00217   0.00120
 Alpha virt. eigenvalues --    0.00814   0.01821   0.02344   0.02956   0.03464
 Alpha virt. eigenvalues --    0.03908   0.04308   0.04795   0.05330   0.05638

 Mulliken atomic charges:
              1
     1  O   -0.555783
     2  C   -0.055078
     3  C    0.273768
     4  O   -0.569689
     5  H    0.343853
     6  C   -0.077822
     7  O   -0.587653
     8  H    0.416359
     9  C   -0.176677
    10  O   -0.523946
    11  H    0.338121
    12  C    0.122737
    13  O   -0.293575
    14  C    0.316733
    15  O   -0.242742
    16  C    0.185598
    17  C    0.132362
    18  O   -0.539700
    19  H    0.360780
    20  C    0.085911
    21  O   -0.553911
    22  H    0.338370
    23  C   -0.344893
    24  O   -0.540834
    25  H    0.358812
    26  C   -0.028314
    27  O   -0.233522
    28  C    0.105981
    29  O   -0.546433
    30  H    0.335675
    31  H    0.133894
    32  H    0.130600
    33  H    0.114034
    34  H    0.109482
    35  H    0.110583
    36  H    0.141219
    37  H    0.154617
    38  H    0.339397
    39  H    0.155820
    40  H    0.141380
    41  H    0.105420
    42  H    0.117698
    43  H    0.123866
    44  H    0.138373
    45  H    0.139130
 Sum of Mulliken atomic charges =   0.00000

 Dipole moment (field-independent basis, Debye):
    X=              3.2283    Y=             -0.4523    Z=             -1.7819  Tot=              3.7151
 Quadrupole moment (field-independent basis, Debye-Ang):
   XX=           -115.8684   YY=           -135.7059   ZZ=           -141.0576
   XY=             17.0566   XZ=              1.3317   YZ=             -1.1730

  Exact polarizability: 235.011  -1.458 196.181   1.089   0.403 143.794
 Approx polarizability: 276.353  -0.770 253.724   1.530  -0.207 241.283

 ******    7 imaginary frequencies (negative Signs) ******

                     1                      2                      3
                     A                      A                      A
 Frequencies --  -272.1047              -238.4176              -232.2407
 Red. masses --     1.7554                 1.1921                 1.3970
 Frc consts  --     0.0766                 0.0399                 0.0444
 IR Inten    --     3.0478               107.3050                78.6623
 Raman Activ --     0.1174                 0.9655                 0.4578

                     4                      5                      6
                     A                      A                      A
 Frequencies --  -204.3094               -79.5354               -50.6443
 Red. masses --     1.5347                 7.0661                 6.3008
 Frc consts  --     0.0377                 0.0263                 0.0095
 IR Inten    --    38.5666                 1.6243                 0.3149
 Raman Activ --     0.5180                 0.0414                 0.0806

                     7                      8                      9
                     A                      A                      A
 Frequencies --   -12.9483                46.9702                74.5871
 Red. masses --     6.1210                 7.1343                 5.8999
 Frc consts  --     0.0006                 0.0093                 0.0193
 IR Inten    --     0.6858                 0.2017                 4.4528
 Raman Activ --     0.0053                 0.1006                 0.1598

                    10                     11                     12
                     A                      A                      A
 Frequencies --    78.0133                96.3374               138.8114
 Red. masses --     6.6680                 6.8021                 5.7427
 Frc consts  --     0.0239                 0.0372                 0.0652
 IR Inten    --     0.1060                 1.9766                 0.4240
 Raman Activ --     0.0746                 0.0640                 0.1596

                    13                     14                     15
                     A                      A                      A
 Frequencies --   147.3338               176.0714               183.4442
 Red. masses --     5.7808                 7.0900                 6.8475
 Frc consts  --     0.0739                 0.1295                 0.1358
 IR Inten    --     2.6402                 0.3427                 1.7402
 Raman Activ --     0.1938                 0.4190                 1.7686

                    16                     17                     18
                     A                      A                      A
 Frequencies --   204.4796               238.6397               274.9980
 Red. masses --     5.5725                 6.3628                 5.0996
 Frc consts  --     0.1373                 0.2135                 0.2272
 IR Inten    --     0.6605                 4.6033                13.6871
 Raman Activ --     0.8271                 1.2334                 0.3982

                    19                     20                     21
                     A                      A                      A
 Frequencies --   277.6048               289.7754               295.9652
 Red. masses --     4.8004                 5.0876                 4.5594
 Frc consts  --     0.2180                 0.2517                 0.2353
 IR Inten    --     9.4058                 2.4698                 1.2960
 Raman Activ --     0.2133                 0.5892                 0.3198

                    22                     23                     24
                     A                      A                      A
 Frequencies --   308.9097               313.0441               335.2471
 Red. masses --     5.2768                 5.7539                 6.2943
 Frc consts  --     0.2967                 0.3322                 0.4168
 IR Inten    --     4.9025                 1.9237                 1.3537
 Raman Activ --     0.1183                 1.6816                 2.4798

                    25                     26                     27
                     A                      A                      A
 Frequencies --   342.9108               363.2008               385.0270
 Red. masses --     6.8102                 4.2669                 7.1888
 Frc consts  --     0.4718                 0.3316                 0.6279
 IR Inten    --     2.5028                 8.2936                 2.9980
 Raman Activ --     4.8514                 0.5479                 1.6821

                    28                     29                     30
                     A                      A                      A
 Frequencies --   403.3379               416.1986               441.8665
 Red. masses --     6.2209                 5.3971                 4.4120
 Frc consts  --     0.5963                 0.5508                 0.5075
 IR Inten    --     7.1317                 4.8591                15.3896
 Raman Activ --     2.9344                 1.6275                 5.5172

                    31                     32                     33
                     A                      A                      A
 Frequencies --   447.0783               485.8519               493.0122
 Red. masses --     4.5159                 4.1147                 5.4063
 Frc consts  --     0.5318                 0.5723                 0.7742
 IR Inten    --     0.8670                11.8647                12.0457
 Raman Activ --     2.2552                 2.8394                 0.2494

                    34                     35                     36
                     A                      A                      A
 Frequencies --   514.8426               542.1880               572.4807
 Red. masses --     3.8221                 2.8698                 3.8715
 Frc consts  --     0.5969                 0.4971                 0.7476
 IR Inten    --    15.2753                13.5875                 5.1145
 Raman Activ --     4.4493                 1.3511                 1.2587

                    37                     38                     39
                     A                      A                      A
 Frequencies --   584.0784               610.1936               628.5826
 Red. masses --     3.2445                 4.2585                 4.7550
 Frc consts  --     0.6521                 0.9342                 1.1069
 IR Inten    --    50.6831                 0.6291                41.9773
 Raman Activ --     0.6014                 0.7157                 0.5492

                    40                     41                     42
                     A                      A                      A
 Frequencies --   647.4630               676.9259               705.0297
 Red. masses --     6.5035                 5.5856                 1.0619
 Frc consts  --     1.6063                 1.5080                 0.3110
 IR Inten    --     1.7461                22.9358                93.0140
 Raman Activ --     0.3065                 0.6659                 1.9310

                    43                     44                     45
                     A                      A                      A
 Frequencies --   717.0636               730.9336               741.7000
 Red. masses --     1.0814                 1.0685                 1.0840
 Frc consts  --     0.3276                 0.3363                 0.3513
 IR Inten    --   157.8915                78.3449               130.8909
 Raman Activ --     4.7105                 1.8207                 1.5276

                    46                     47                     48
                     A                      A                      A
 Frequencies --   749.1273               856.5240               860.6417
 Red. masses --     1.0523                 1.6361                 1.6110
 Frc consts  --     0.3479                 0.7072                 0.7031
 IR Inten    --   100.2195                11.6939                12.1562
 Raman Activ --     1.7850                 1.5899                 0.5984

                    49                     50                     51
                     A                      A                      A
 Frequencies --   881.8962               922.8042               951.3766
 Red. masses --     1.3157                 4.3855                 4.3669
 Frc consts  --     0.6029                 2.2003                 2.3288
 IR Inten    --    75.0976               118.7529                18.1303
 Raman Activ --     2.6885                 4.3687                 0.2783

                    52                     53                     54
                     A                      A                      A
 Frequencies --   969.5647               977.3644               989.1012
 Red. masses --     4.2856                 4.6014                 6.8632
 Frc consts  --     2.3736                 2.5897                 3.9560
 IR Inten    --    11.4286               176.9115               372.1466
 Raman Activ --     2.9814                 3.1472                 1.6624

                    55                     56                     57
                     A                      A                      A
 Frequencies --   995.8495              1009.2697              1018.7552
 Red. masses --     6.6739                 6.0924                 5.1949
 Frc consts  --     3.8996                 3.6564                 3.1766
 IR Inten    --    33.8007                54.8957                81.6930
 Raman Activ --     1.9642                 2.6452                 2.3999

                    58                     59                     60
                     A                      A                      A
 Frequencies --  1030.8472              1048.3908              1059.5156
 Red. masses --     7.5805                 6.7869                 4.8089
 Frc consts  --     4.7461                 4.3951                 3.1806
 IR Inten    --   358.4809                39.2658                44.4615
 Raman Activ --     1.6709                10.1223                11.0127

                    61                     62                     63
                     A                      A                      A
 Frequencies --  1061.1280              1068.5344              1076.1081
 Red. masses --     3.1355                 5.3630                 3.5996
 Frc consts  --     2.0802                 3.6077                 2.4559
 IR Inten    --    50.7212                72.0212                25.8103
 Raman Activ --     5.5874                 1.6768                12.6699

                    64                     65                     66
                     A                      A                      A
 Frequencies --  1087.6377              1093.2793              1109.2161
 Red. masses --     2.3389                 2.5883                 2.8318
 Frc consts  --     1.6302                 1.8228                 2.0528
 IR Inten    --   164.4002                70.1725                 3.5345
 Raman Activ --     3.2520                 2.4868                 2.7952

                    67                     68                     69
                     A                      A                      A
 Frequencies --  1116.5405              1119.2202              1122.1324
 Red. masses --     3.1220                 2.1898                 2.6495
 Frc consts  --     2.2931                 1.6162                 1.9656
 IR Inten    --    71.2602                17.6041                61.4287
 Raman Activ --     7.2508                14.3861                 4.9155

                    70                     71                     72
                     A                      A                      A
 Frequencies --  1131.5595              1152.6256              1160.6733
 Red. masses --     2.6328                 1.5608                 1.9426
 Frc consts  --     1.9862                 1.2218                 1.5419
 IR Inten    --     4.2665                 9.1809                19.3622
 Raman Activ --     7.8610                 1.8570                 4.2214

                    73                     74                     75
                     A                      A                      A
 Frequencies --  1172.1625              1179.0465              1195.6148
 Red. masses --     2.2190                 1.8040                 1.6121
 Frc consts  --     1.7963                 1.4776                 1.3578
 IR Inten    --    24.2011                 1.2064                23.2705
 Raman Activ --     4.6897                 1.0087                 4.1012

                    76                     77                     78
                     A                      A                      A
 Frequencies --  1197.1913              1198.5691              1215.5937
 Red. masses --     1.4470                 1.2106                 1.6137
 Frc consts  --     1.2219                 1.0246                 1.4049
 IR Inten    --     7.4477                 8.3640                12.4189
 Raman Activ --     0.3599                 1.6351                 4.7113

                    79                     80                     81
                     A                      A                      A
 Frequencies --  1233.6334              1236.5496              1251.5952
 Red. masses --     1.5154                 1.2533                 1.2203
 Frc consts  --     1.3587                 1.1291                 1.1262
 IR Inten    --     9.5889                13.1086                 7.5800
 Raman Activ --     0.5206                 1.4549                 3.3118

                    82                     83                     84
                     A                      A                      A
 Frequencies --  1268.8001              1272.6385              1281.8519
 Red. masses --     1.2811                 1.3927                 1.2342
 Frc consts  --     1.2152                 1.3290                 1.1949
 IR Inten    --    13.3917                 9.0524                38.1567
 Raman Activ --     2.3569                 1.4394                 5.9529

                    85                     86                     87
                     A                      A                      A
 Frequencies --  1289.7443              1296.6596              1304.4315
 Red. masses --     1.2712                 1.2520                 1.3003
 Frc consts  --     1.2459                 1.2402                 1.3035
 IR Inten    --    13.5311                31.4937                 4.9605
 Raman Activ --     3.0129                 7.8252                 1.4552

                    88                     89                     90
                     A                      A                      A
 Frequencies --  1309.6467              1319.3023              1327.7072
 Red. masses --     1.3095                 1.2318                 1.1381
 Frc consts  --     1.3233                 1.2632                 1.1820
 IR Inten    --    28.8314                49.8791                28.1879
 Raman Activ --     2.7023                 2.2164                 5.6812

                    91                     92                     93
                     A                      A                      A
 Frequencies --  1336.1434              1336.4536              1347.9260
 Red. masses --     1.2951                 1.3614                 1.2098
 Frc consts  --     1.3622                 1.4326                 1.2951
 IR Inten    --    18.0468                47.6336                25.0585
 Raman Activ --     3.6264                 2.3958                 8.1536

                    94                     95                     96
                     A                      A                      A
 Frequencies --  1363.9692              1370.7397              1377.9953
 Red. masses --     1.2917                 1.2941                 1.4574
 Frc consts  --     1.4159                 1.4326                 1.6306
 IR Inten    --     3.6162                22.6144                 4.8182
 Raman Activ --     5.4477                 2.3691                 5.3709

                    97                     98                     99
                     A                      A                      A
 Frequencies --  1388.8267              1393.2922              1408.6332
 Red. masses --     1.2607                 1.4302                 1.3647
 Frc consts  --     1.4327                 1.6358                 1.5955
 IR Inten    --     9.4097                 4.4475                 2.1766
 Raman Activ --     7.2934                 4.2747                 4.4884

                   100                    101                    102
                     A                      A                      A
 Frequencies --  1420.0646              1438.6719              1449.8365
 Red. masses --     1.4832                 1.3064                 1.4705
 Frc consts  --     1.7622                 1.5931                 1.8212
 IR Inten    --    50.2652                32.0651                10.0216
 Raman Activ --     1.2846                 1.7762                 1.5582

                   103                    104                    105
                     A                      A                      A
 Frequencies --  1460.8199              1466.6377              1474.8548
 Red. masses --     1.4455                 1.3491                 1.0929
 Frc consts  --     1.8174                 1.7098                 1.4006
 IR Inten    --    34.8408                46.5206                 1.8609
 Raman Activ --     2.8871                 2.9790                 4.6837

                   106                    107                    108
                     A                      A                      A
 Frequencies --  1478.0236              1481.4991              3252.6201
 Red. masses --     1.0907                 1.3319                 1.0793
 Frc consts  --     1.4039                 1.7223                 6.7277
 IR Inten    --     4.1057                25.6175                 6.8481
 Raman Activ --     3.8475                 0.8456                 4.9233

                   109                    110                    111
                     A                      A                      A
 Frequencies --  3256.9754              3259.1586              3262.3989
 Red. masses --     1.0608                 1.0560                 1.0805
 Frc consts  --     6.6302                 6.6088                 6.7758
 IR Inten    --   150.1960                32.1682                10.5974
 Raman Activ --    78.6916                92.1273               105.3502

                   112                    113                    114
                     A                      A                      A
 Frequencies --  3272.4974              3276.5560              3277.2411
 Red. masses --     1.0833                 1.0832                 1.0717
 Frc consts  --     6.8356                 6.8514                 6.7818
 IR Inten    --     4.3042                 1.5457               387.1204
 Raman Activ --    44.2631                42.7941               285.7387

                   115                    116                    117
                     A                      A                      A
 Frequencies --  3279.2287              3286.6677              3293.3725
 Red. masses --     1.0801                 1.0865                 1.0868
 Frc consts  --     6.8431                 6.9152                 6.9454
 IR Inten    --   161.8017                 1.9769                27.2688
 Raman Activ --    58.0352                27.1923                 7.8063

                   118                    119                    120
                     A                      A                      A
 Frequencies --  3295.6810              3298.5704              3311.5258
 Red. masses --     1.0877                 1.0867                 1.0922
 Frc consts  --     6.9607                 6.9667                 7.0566
 IR Inten    --    36.1008                32.4994                 7.5719
 Raman Activ --    63.2413                61.8775                38.0894

                   121                    122                    123
                     A                      A                      A
 Frequencies --  3312.4183              3318.7758              3354.4644
 Red. masses --     1.1004                 1.1078                 1.0670
 Frc consts  --     7.1133                 7.1888                 7.0739
 IR Inten    --    85.3196                42.7005               205.8190
 Raman Activ --    27.2230                32.7388               138.0998

                   124                    125                    126
                     A                      A                      A
 Frequencies --  3360.1468              3360.8391              3368.0295
 Red. masses --     1.0673                 1.0656                 1.0660
 Frc consts  --     7.0996                 7.0915                 7.1247
 IR Inten    --    31.0103                44.6905                49.2830
 Raman Activ --   154.7452               143.1888               114.2425

                   127                    128                    129
                     A                      A                      A
 Frequencies --  3369.9690              3888.8832              3894.8346
 Red. masses --     1.0670                 1.0676                 1.0672
 Frc consts  --     7.1397                 9.5132                 9.5380
 IR Inten    --    58.6148                76.7847                72.1536
 Raman Activ --   150.4343                90.1471               118.0147

 - Thermochemistry -
 -------------------
 Temperature   298.150 Kelvin.  Pressure   1.00000 Atm.
 Atom     1 has atomic number  8 and mass  15.99491

 Molecular mass:   342.11621 amu.
 Principal axes and moments of inertia in atomic units:
                           1         2         3
     Eigenvalues --  4382.99201********************
           X            0.99997   0.00785  -0.00052
           Y           -0.00785   0.99997   0.00095
           Z            0.00052  -0.00095   1.00000
 This molecule is an asymmetric top.
 Rotational symmetry number  1.
 Warning -- assumption of classical behavior for rotation
           may cause significant error
 Rotational temperatures (Kelvin)      0.01976     0.00687     0.00526
 Rotational constants (GHZ):           0.41176     0.14312     0.10959
    7 imaginary frequencies ignored.
 Zero-point vibrational energy     974632.7 (Joules/Mol)
                                  232.94280 (Kcal/Mol)
 Warning -- explicit consideration of  31 degrees of freedom as
           vibrations may cause significant error
 Vibrational temperatures:     67.58   107.31   112.24   138.61   199.72
          (Kelvin)            211.98   253.33   263.93   294.20   343.35
                              395.66   399.41   416.92   425.83   444.45
                              450.40   482.35   493.37   522.56   553.97
                              580.31   598.82   635.75   643.25   699.03
                              709.33   740.74   780.09   823.67   840.36
                              877.93   904.39   931.55   973.94  1014.38
                             1031.69  1051.65  1067.14  1077.83  1232.35
                             1238.27  1268.85  1327.71  1368.82  1394.99
                             1406.21  1423.09  1432.80  1452.11  1465.76
                             1483.16  1508.40  1524.40  1526.72  1537.38
                             1548.28  1564.87  1572.98  1595.91  1606.45
                             1610.31  1614.50  1628.06  1658.37  1669.95
                             1686.48  1696.38  1720.22  1722.49  1724.47
                             1748.97  1774.92  1779.12  1800.76  1825.52
                             1831.04  1844.30  1855.65  1865.60  1876.78
                             1884.29  1898.18  1910.27  1922.41  1922.86
                             1939.36  1962.44  1972.19  1982.63  1998.21
                             2004.63  2026.71  2043.15  2069.93  2085.99
                             2101.79  2110.16  2121.98  2126.54  2131.54
                             4679.79  4686.06  4689.20  4693.86  4708.39
                             4714.23  4715.21  4718.07  4728.78  4738.42
                             4741.74  4745.90  4764.54  4765.83  4774.97
                             4826.32  4834.50  4835.49  4845.84  4848.63
                             5595.23  5603.79

 Zero-point correction=                           0.371218 (Hartree/Particle)
 Thermal correction to Energy=                    0.389421
 Thermal correction to Enthalpy=                  0.390366
 Thermal correction to Gibbs Free Energy=         0.325995
 Sum of electronic and zero-point Energies=          -1297.606120
 Sum of electronic and thermal Energies=             -1297.587917
 Sum of electronic and thermal Enthalpies=           -1297.586973
 Sum of electronic and thermal Free Energies=        -1297.651343

                     E (Thermal)             CV                S
                      KCal/Mol        Cal/Mol-Kelvin    Cal/Mol-Kelvin
 Total                  244.366             75.772            135.479
 Electronic               0.000              0.000              0.000
 Translational            0.889              2.981             43.384
 Rotational               0.889              2.981             35.164
 Vibrational            242.588             69.811             56.931
 Vibration     1          0.595              1.979              4.941
 Vibration     2          0.599              1.966              4.028
 Vibration     3          0.599              1.964              3.940
 Vibration     4          0.603              1.952              3.527
 Vibration     5          0.614              1.915              2.820
 Vibration     6          0.617              1.906              2.706
 Vibration     7          0.628              1.872              2.370
 Vibration     8          0.631              1.862              2.293
 Vibration     9          0.640              1.834              2.092
 Vibration    10          0.657              1.781              1.813
 Vibration    11          0.677              1.720              1.565
 Vibration    12          0.679              1.715              1.548
 Vibration    13          0.686              1.693              1.475
 Vibration    14          0.690              1.681              1.440
 Vibration    15          0.698              1.657              1.368
 Vibration    16          0.701              1.649              1.346
 Vibration    17          0.716              1.605              1.235
 Vibration    18          0.722              1.590              1.199
 Vibration    19          0.737              1.548              1.108
 Vibration    20          0.754              1.502              1.019
 Vibration    21          0.769              1.463              0.950
 Vibration    22          0.779              1.435              0.905
 Vibration    23          0.802              1.379              0.821
 Vibration    24          0.806              1.367              0.805
 Vibration    25          0.842              1.281              0.694
 Vibration    26          0.849              1.266              0.676
 Vibration    27          0.870              1.217              0.622
 Vibration    28          0.897              1.157              0.561
 Vibration    29          0.929              1.091              0.499
 Vibration    30          0.941              1.066              0.478
 Vibration    31          0.969              1.010              0.432

 Normal termination of Gaussian 09 at Wed Mar 30 03:16:58 2016.
