 Gaussian 09, Revision B.01,
 Gaussian 09:  EM64L-G09RevB.01 12-Aug-2010

 -------------------------------------------------
 # freq=raman b3lyp/6-31+g(2d,p) geom=connectivity
 -------------------------------------------------

 -----------------
 423 9655/9655.com
 -----------------
 Symbolic Z-matrix:
 Charge =  0 Multiplicity = 1

                         Standard orientation:
 ---------------------------------------------------------------------
 Center     Atomic      Atomic             Coordinates (Angstroms)
 Number     Number       Type             X           Y           Z
 ---------------------------------------------------------------------
      1          8           0       -5.153714   -0.217286    0.274277
      2          6           0       -3.800764    0.068675   -0.107587
      3          6           0       -3.226308    1.357727    0.458546
      4          8           0       -4.058458    2.461597    0.073268
      5          1           0       -4.976866    2.203627    0.372950
      6          6           0       -1.822368    1.479356   -0.111361
      7          8           0       -1.094129    2.629346    0.344913
      8          1           0       -0.235637    2.777712   -0.146526
      9          6           0       -3.244964   -2.493553   -0.267509
     10          8           0       -4.543530   -3.038821    0.008568
     11          1           0       -4.561435   -4.023018   -0.164646
     12          6           0       -2.892274   -1.101959    0.231552
     13          8           0       -1.513359   -0.965460   -0.139351
     14          6           0       -0.930581    0.295240    0.222555
     15          8           0        0.275662    0.414665   -0.545733
     16          6           0        1.573475    0.235629    0.039489
     17          6           0        2.049710   -1.169069   -0.295783
     18          8           0        1.164163   -2.251514    0.026113
     19          1           0        0.265114   -1.995597   -0.329913
     20          6           0        3.409163   -1.628167    0.205597
     21          8           0        3.781820   -2.903692   -0.335168
     22          1           0        4.613188   -3.142482    0.166652
     23          6           0        2.517139    2.677111   -0.068403
     24          8           0        1.342003    3.312023   -0.592893
     25          1           0        1.533878    4.282050   -0.438188
     26          6           0        2.666140    1.199901   -0.391966
     27          8           0        3.882522    0.829413    0.273873
     28          6           0        4.370213   -0.479803   -0.053078
     29          8           0        5.481210   -0.533566    0.853277
     30          1           0        6.292451   -0.666754    0.357547
     31          1           0       -5.673724   -0.409077   -0.509564
     32          1           0       -2.523157   -3.169797    0.140642
     33          1           0       -3.121013   -2.490755   -1.330302
     34          1           0       -2.903408   -1.165548    1.299603
     35          1           0       -3.795123    0.169331   -1.172827
     36          1           0       -3.179456    1.294819    1.525667
     37          1           0       -1.904928    1.541519   -1.176358
     38          1           0       -0.696926    0.300247    1.266720
     39          1           0        3.373646    3.190933   -0.452178
     40          1           0        2.508803    2.786505    0.995957
     41          1           0        2.809893    1.097233   -1.447283
     42          1           0        1.469573    0.307815    1.101983
     43          1           0        2.128465   -1.178261   -1.362841
     44          1           0        3.334724   -1.746134    1.266466
     45          1           0        4.716935   -0.504535   -1.065043
 ---------------------------------------------------------------------

 SCF Done:  E(RB3LYP) =  -1297.99280740     A.U. after   13 cycles

 The electronic state is 1-A.
 Alpha  occ. eigenvalues --  -19.19073 -19.18118 -19.17776 -19.17725 -19.17343
 Alpha  occ. eigenvalues --  -19.16915 -19.16723 -19.15834 -19.15311 -19.14249
 Alpha  occ. eigenvalues --  -19.12882 -10.30390 -10.30190 -10.26307 -10.25916
 Alpha  occ. eigenvalues --  -10.25423 -10.25126 -10.24984 -10.24726 -10.24554
 Alpha  occ. eigenvalues --  -10.24143 -10.23999 -10.23848  -1.09500  -1.08950
 Alpha  occ. eigenvalues --   -1.05885  -1.04962  -1.03906  -1.03656  -1.02563
 Alpha  occ. eigenvalues --   -1.02180  -1.01880  -1.00709  -0.99634  -0.81987
 Alpha  occ. eigenvalues --   -0.80487  -0.79516  -0.78106  -0.72153  -0.69628
 Alpha  occ. eigenvalues --   -0.67125  -0.64775  -0.63057  -0.62343  -0.61004
 Alpha  occ. eigenvalues --   -0.59901  -0.56505  -0.55506  -0.54741  -0.54508
 Alpha  occ. eigenvalues --   -0.54067  -0.53120  -0.52824  -0.51676  -0.51307
 Alpha  occ. eigenvalues --   -0.50898  -0.49746  -0.49178  -0.48624  -0.46420
 Alpha  occ. eigenvalues --   -0.45905  -0.45100  -0.44167  -0.43657  -0.42662
 Alpha  occ. eigenvalues --   -0.42541  -0.41949  -0.41113  -0.39881  -0.39367
 Alpha  occ. eigenvalues --   -0.38994  -0.38375  -0.37657  -0.35728  -0.35554
 Alpha  occ. eigenvalues --   -0.35387  -0.34950  -0.34223  -0.33684  -0.32691
 Alpha  occ. eigenvalues --   -0.32246  -0.31213  -0.31048  -0.30498  -0.29925
 Alpha  occ. eigenvalues --   -0.29087  -0.28423  -0.28364  -0.27416  -0.26847
 Alpha  occ. eigenvalues --   -0.26366
 Alpha virt. eigenvalues --   -0.02066  -0.01697  -0.01625   0.00071   0.00266
 Alpha virt. eigenvalues --    0.01072   0.01986   0.02267   0.02773   0.03431
 Alpha virt. eigenvalues --    0.03750   0.04397   0.04714   0.05367   0.05705

 Mulliken atomic charges:
              1
     1  O   -0.537630
     2  C   -0.137069
     3  C    0.162102
     4  O   -0.543062
     5  H    0.342919
     6  C    0.027671
     7  O   -0.587077
     8  H    0.427017
     9  C   -0.180365
    10  O   -0.551257
    11  H    0.341660
    12  C    0.259510
    13  O   -0.251697
    14  C    0.181562
    15  O   -0.281140
    16  C    0.189304
    17  C    0.256031
    18  O   -0.545203
    19  H    0.366560
    20  C   -0.050422
    21  O   -0.514998
    22  H    0.330218
    23  C   -0.248778
    24  O   -0.536564
    25  H    0.351228
    26  C   -0.175093
    27  O   -0.192651
    28  C    0.139254
    29  O   -0.513092
    30  H    0.326903
    31  H    0.344124
    32  H    0.146680
    33  H    0.140243
    34  H    0.105341
    35  H    0.113265
    36  H    0.123497
    37  H    0.128060
    38  H    0.126613
    39  H    0.149700
    40  H    0.160344
    41  H    0.119000
    42  H    0.114807
    43  H    0.111129
    44  H    0.135708
    45  H    0.125645
 Sum of Mulliken atomic charges =   0.00000

 Dipole moment (field-independent basis, Debye):
    X=              2.8152    Y=             -0.0177    Z=             -1.9843  Tot=              3.4443
 Quadrupole moment (field-independent basis, Debye-Ang):
   XX=           -116.7029   YY=           -134.5418   ZZ=           -139.0530
   XY=             15.0401   XZ=              0.8924   YZ=             -0.6536

  Exact polarizability: 235.398   0.013 198.503   1.441   0.696 144.349
 Approx polarizability: 275.435   1.349 258.444   2.693   0.948 239.556

 ******    7 imaginary frequencies (negative Signs) ******

                     1                      2                      3
                     A                      A                      A
 Frequencies --  -289.8939              -266.5253              -231.5046
 Red. masses --     1.6880                 1.1839                 1.8701
 Frc consts  --     0.0836                 0.0496                 0.0591
 IR Inten    --    18.3615                94.1780                 2.8025
 Raman Activ --     0.1073                 0.8686                 0.0793

                     4                      5                      6
                     A                      A                      A
 Frequencies --  -226.9308               -74.3236               -51.9591
 Red. masses --     1.1697                 6.2376                 7.0789
 Frc consts  --     0.0355                 0.0203                 0.0113
 IR Inten    --    90.6492                 0.3528                 0.9860
 Raman Activ --     0.6140                 0.0468                 0.0362

                     7                      8                      9
                     A                      A                      A
 Frequencies --   -42.2610                29.7383                62.9938
 Red. masses --     6.5146                 6.9450                 5.8220
 Frc consts  --     0.0069                 0.0036                 0.0136
 IR Inten    --     0.5265                 0.7737                 2.4645
 Raman Activ --     0.0295                 0.0344                 0.1191

                    10                     11                     12
                     A                      A                      A
 Frequencies --    68.9816                95.2892               110.4749
 Red. masses --     6.3196                 5.8208                 6.3903
 Frc consts  --     0.0177                 0.0311                 0.0460
 IR Inten    --     0.3936                 1.1254                 3.2369
 Raman Activ --     0.0909                 0.2278                 0.0583

                    13                     14                     15
                     A                      A                      A
 Frequencies --   159.7931               165.1085               183.3334
 Red. masses --     6.8988                 6.2106                 6.3093
 Frc consts  --     0.1038                 0.0998                 0.1249
 IR Inten    --     3.4263                 2.5966                 0.7736
 Raman Activ --     0.5631                 0.4367                 0.5259

                    16                     17                     18
                     A                      A                      A
 Frequencies --   200.0978               221.8217               250.7471
 Red. masses --     6.6312                 5.8368                 4.7057
 Frc consts  --     0.1564                 0.1692                 0.1743
 IR Inten    --     0.5046                 1.6339                19.0185
 Raman Activ --     1.9608                 1.3546                 0.1863

                    19                     20                     21
                     A                      A                      A
 Frequencies --   265.0640               278.5502               299.4403
 Red. masses --     4.8160                 4.8276                 5.2583
 Frc consts  --     0.1994                 0.2207                 0.2778
 IR Inten    --     0.5244                 3.6718                 4.9627
 Raman Activ --     0.1634                 0.1187                 0.0818

                    22                     23                     24
                     A                      A                      A
 Frequencies --   309.4886               321.9328               323.6454
 Red. masses --     5.0715                 5.6434                 6.7066
 Frc consts  --     0.2862                 0.3446                 0.4139
 IR Inten    --     3.4203                 1.1193                 0.9653
 Raman Activ --     0.9734                 2.0779                 2.6702

                    25                     26                     27
                     A                      A                      A
 Frequencies --   334.2947               359.6730               375.9231
 Red. masses --     6.8044                 4.2088                 8.2556
 Frc consts  --     0.4480                 0.3208                 0.6874
 IR Inten    --    10.2461                 3.6684                 1.9585
 Raman Activ --     4.0858                 0.8262                 2.8365

                    28                     29                     30
                     A                      A                      A
 Frequencies --   400.9335               415.9281               424.9342
 Red. masses --     3.7219                 6.6544                 5.8702
 Frc consts  --     0.3525                 0.6783                 0.6245
 IR Inten    --    12.6775                 0.5383                 0.4872
 Raman Activ --     2.5210                 5.1900                 0.5776

                    31                     32                     33
                     A                      A                      A
 Frequencies --   435.5127               467.4789               478.4444
 Red. masses --     4.6372                 4.1200                 4.5229
 Frc consts  --     0.5182                 0.5305                 0.6100
 IR Inten    --     5.2976                 0.3756                14.5401
 Raman Activ --     1.3719                 3.7368                 0.3315

                    34                     35                     36
                     A                      A                      A
 Frequencies --   496.2778               514.1003               560.5024
 Red. masses --     3.9528                 3.2781                 3.7943
 Frc consts  --     0.5736                 0.5105                 0.7023
 IR Inten    --     9.5136                 6.4842                20.9649
 Raman Activ --     1.7812                 5.4856                 3.0174

                    37                     38                     39
                     A                      A                      A
 Frequencies --   578.8453               590.5221               615.1753
 Red. masses --     3.2783                 4.3259                 5.0886
 Frc consts  --     0.6472                 0.8888                 1.1346
 IR Inten    --    50.7517                18.2695                 0.5507
 Raman Activ --     0.3393                 0.6723                 0.3667

                    40                     41                     42
                     A                      A                      A
 Frequencies --   626.2032               679.6682               681.9158
 Red. masses --     4.8519                 2.7624                 1.3149
 Frc consts  --     1.1210                 0.7518                 0.3602
 IR Inten    --    25.0774                59.0289                68.3988
 Raman Activ --     2.0669                 0.7718                 2.1781

                    43                     44                     45
                     A                      A                      A
 Frequencies --   740.1489               751.8385               753.0309
 Red. masses --     1.0906                 1.0870                 1.1119
 Frc consts  --     0.3520                 0.3620                 0.3715
 IR Inten    --    88.0061               103.0458               122.8005
 Raman Activ --     1.9624                 1.6647                 1.5203

                    46                     47                     48
                     A                      A                      A
 Frequencies --   810.5238               846.2366               853.9144
 Red. masses --     1.0788                 1.4007                 1.3998
 Frc consts  --     0.4176                 0.5910                 0.6014
 IR Inten    --   120.6232                21.6685                33.6010
 Raman Activ --     3.5802                 0.9599                 0.3561

                    49                     50                     51
                     A                      A                      A
 Frequencies --   873.4389               921.9362               945.0560
 Red. masses --     1.6033                 5.7946                 5.7647
 Frc consts  --     0.7207                 2.9019                 3.0335
 IR Inten    --    17.3857               168.7431                49.7653
 Raman Activ --     1.0034                 2.5881                 0.2665

                    52                     53                     54
                     A                      A                      A
 Frequencies --   967.8781               983.1984               987.9560
 Red. masses --     5.2202                 5.1999                 6.3350
 Frc consts  --     2.8812                 2.9616                 3.6431
 IR Inten    --   105.1514                 7.7039                97.7698
 Raman Activ --     0.7805                 0.7337                 4.2888

                    55                     56                     57
                     A                      A                      A
 Frequencies --   999.0298              1007.1488              1018.1944
 Red. masses --     5.3576                 6.5773                 6.5128
 Frc consts  --     3.1505                 3.9308                 3.9781
 IR Inten    --   445.2346                28.0801               155.1996
 Raman Activ --     1.5513                 2.4565                 2.3503

                    58                     59                     60
                     A                      A                      A
 Frequencies --  1038.5294              1058.5967              1062.0792
 Red. masses --     5.0203                 4.6939                 4.2410
 Frc consts  --     3.1902                 3.0992                 2.8186
 IR Inten    --   288.0543               161.9330                31.5339
 Raman Activ --     2.1687                11.1880                 3.9664

                    61                     62                     63
                     A                      A                      A
 Frequencies --  1065.2971              1074.1605              1076.8426
 Red. masses --     5.1935                 4.1838                 5.1146
 Frc consts  --     3.4726                 2.8442                 3.4944
 IR Inten    --   103.6301                 9.5257                 1.3203
 Raman Activ --     2.9826                10.9434                 8.7495

                    64                     65                     66
                     A                      A                      A
 Frequencies --  1086.6644              1110.5265              1113.8476
 Red. masses --     2.8485                 2.9741                 3.3614
 Frc consts  --     1.9818                 2.1611                 2.4571
 IR Inten    --    89.9637                43.9078                46.1918
 Raman Activ --    11.7824                 1.3305                 3.9770

                    67                     68                     69
                     A                      A                      A
 Frequencies --  1120.4785              1131.4764              1135.0265
 Red. masses --     1.9431                 3.3108                 2.7280
 Frc consts  --     1.4373                 2.4973                 2.0706
 IR Inten    --    37.4771                16.0765                41.1225
 Raman Activ --     3.9341                 5.2590                 5.6527

                    70                     71                     72
                     A                      A                      A
 Frequencies --  1143.8700              1156.9636              1164.5899
 Red. masses --     3.1282                 1.6415                 2.1819
 Frc consts  --     2.4115                 1.2946                 1.7436
 IR Inten    --    37.8444                 5.3745                 8.7063
 Raman Activ --    10.3834                 3.7806                 1.5947

                    73                     74                     75
                     A                      A                      A
 Frequencies --  1173.3598              1183.1506              1193.0813
 Red. masses --     1.7058                 1.9242                 1.7737
 Frc consts  --     1.3837                 1.5870                 1.4876
 IR Inten    --     5.5886                 0.7186                16.5137
 Raman Activ --     3.6816                 1.1728                 3.5776

                    76                     77                     78
                     A                      A                      A
 Frequencies --  1212.7599              1217.0974              1227.1324
 Red. masses --     1.4063                 1.2691                 1.2577
 Frc consts  --     1.2187                 1.1076                 1.1158
 IR Inten    --    17.0658                 5.7848                 5.4803
 Raman Activ --     3.8825                 0.6926                 0.8601

                    79                     80                     81
                     A                      A                      A
 Frequencies --  1233.7713              1249.8166              1259.5591
 Red. masses --     1.2818                 1.1594                 1.2169
 Frc consts  --     1.1495                 1.0670                 1.1375
 IR Inten    --     2.9828                 5.1435                23.2968
 Raman Activ --     1.6634                 0.8979                 0.5841

                    82                     83                     84
                     A                      A                      A
 Frequencies --  1273.3657              1280.9660              1289.5165
 Red. masses --     1.1754                 1.3036                 1.2706
 Frc consts  --     1.1229                 1.2603                 1.2448
 IR Inten    --    12.1335                 9.3903                18.2056
 Raman Activ --     2.3438                 2.4036                 1.5491

                    85                     86                     87
                     A                      A                      A
 Frequencies --  1291.2027              1296.5297              1302.7005
 Red. masses --     1.2324                 1.3236                 1.3706
 Frc consts  --     1.2106                 1.3109                 1.3704
 IR Inten    --     5.4589                18.7112                48.2304
 Raman Activ --     2.3356                 0.8636                 3.0972

                    88                     89                     90
                     A                      A                      A
 Frequencies --  1313.0331              1318.9907              1329.6573
 Red. masses --     1.2198                 1.2488                 1.2408
 Frc consts  --     1.2391                 1.2800                 1.2925
 IR Inten    --    15.7153                16.2452                25.6730
 Raman Activ --     8.0350                14.4424                 1.5250

                    91                     92                     93
                     A                      A                      A
 Frequencies --  1335.6899              1339.6614              1350.7680
 Red. masses --     1.2467                 1.2202                 1.2578
 Frc consts  --     1.3105                 1.2902                 1.3522
 IR Inten    --    12.9921                35.8710                65.6255
 Raman Activ --     1.7658                 4.9965                 1.2159

                    94                     95                     96
                     A                      A                      A
 Frequencies --  1355.1352              1362.9660              1378.3168
 Red. masses --     1.2652                 1.4674                 1.4727
 Frc consts  --     1.3690                 1.6061                 1.6483
 IR Inten    --     6.7807                 7.6218                 9.6848
 Raman Activ --     2.1965                12.4670                 5.1967

                    97                     98                     99
                     A                      A                      A
 Frequencies --  1392.0162              1397.2498              1405.0479
 Red. masses --     1.5023                 1.4553                 1.3172
 Frc consts  --     1.7151                 1.6740                 1.5320
 IR Inten    --     3.0467                 8.6533                 3.6149
 Raman Activ --     6.0917                 6.9057                 4.7241

                   100                    101                    102
                     A                      A                      A
 Frequencies --  1427.4394              1453.8347              1460.0642
 Red. masses --     1.3418                 1.4088                 1.2839
 Frc consts  --     1.6108                 1.7544                 1.6126
 IR Inten    --    48.8111                20.0155                17.0004
 Raman Activ --     1.1904                 2.1231                 1.6805

                   103                    104                    105
                     A                      A                      A
 Frequencies --  1466.4251              1474.3062              1477.6540
 Red. masses --     1.4125                 1.0980                 1.0716
 Frc consts  --     1.7896                 1.4062                 1.3786
 IR Inten    --    48.4025                 1.6291                 4.2457
 Raman Activ --     2.2228                 3.4512                 5.2825

                   106                    107                    108
                     A                      A                      A
 Frequencies --  1490.3147              1502.8030              3254.3044
 Red. masses --     1.3722                 1.3547                 1.0646
 Frc consts  --     1.7956                 1.8025                 6.6431
 IR Inten    --    49.1439                19.9196                 5.2085
 Raman Activ --     1.3328                 0.6673               147.3607

                   109                    110                    111
                     A                      A                      A
 Frequencies --  3255.2115              3256.8769              3258.9698
 Red. masses --     1.0756                 1.0703                 1.0729
 Frc consts  --     6.7153                 6.6890                 6.7136
 IR Inten    --   142.5920               526.2838                74.9148
 Raman Activ --    53.2179                42.5713                16.7883

                   112                    113                    114
                     A                      A                      A
 Frequencies --  3268.6292              3270.4897              3273.1924
 Red. masses --     1.0637                 1.0806                 1.0832
 Frc consts  --     6.6959                 6.8100                 6.8379
 IR Inten    --   191.8818                16.0314                10.3909
 Raman Activ --   328.5734                34.0982                38.4572

                   115                    116                    117
                     A                      A                      A
 Frequencies --  3278.5418              3280.2091              3285.5969
 Red. masses --     1.0836                 1.0821                 1.0862
 Frc consts  --     6.8623                 6.8600                 6.9086
 IR Inten    --     6.7378                30.1345                 6.5686
 Raman Activ --   140.8675                93.7788                 9.8819

                   118                    119                    120
                     A                      A                      A
 Frequencies --  3288.0385              3295.6236              3300.4697
 Red. masses --     1.0851                 1.0868                 1.0872
 Frc consts  --     6.9117                 6.9546                 6.9779
 IR Inten    --     3.7190                67.4665                86.7297
 Raman Activ --    26.4879                 7.9009                13.5953

                   121                    122                    123
                     A                      A                      A
 Frequencies --  3309.8424              3321.5922              3344.5588
 Red. masses --     1.1054                 1.1078                 1.0662
 Frc consts  --     7.1346                 7.2011                 7.0271
 IR Inten    --    57.2214                40.3082               275.6873
 Raman Activ --    31.3683                50.5141               154.1461

                   124                    125                    126
                     A                      A                      A
 Frequencies --  3364.2945              3369.1336              3372.3821
 Red. masses --     1.0660                 1.0653                 1.0657
 Frc consts  --     7.1089                 7.1245                 7.1413
 IR Inten    --    60.8216                39.3630                33.8341
 Raman Activ --   126.6010                97.7482               134.0807

                   127                    128                    129
                     A                      A                      A
 Frequencies --  3373.5624              3890.4624              3890.6123
 Red. masses --     1.0676                 1.0676                 1.0675
 Frc consts  --     7.1585                 9.5203                 9.5200
 IR Inten    --    47.7427               117.4926                32.1566
 Raman Activ --   186.4563                38.3385               163.4988

 - Thermochemistry -
 -------------------
 Temperature   298.150 Kelvin.  Pressure   1.00000 Atm.
 Atom     1 has atomic number  8 and mass  15.99491

 Molecular mass:   342.11621 amu.
 Principal axes and moments of inertia in atomic units:
                           1         2         3
     Eigenvalues --  4426.10790********************
           X            0.99997   0.00771  -0.00002
           Y           -0.00771   0.99997   0.00090
           Z            0.00003  -0.00090   1.00000
 This molecule is an asymmetric top.
 Rotational symmetry number  1.
 Warning -- assumption of classical behavior for rotation
           may cause significant error
 Rotational temperatures (Kelvin)      0.01957     0.00677     0.00515
 Rotational constants (GHZ):           0.40775     0.14112     0.10739
    7 imaginary frequencies ignored.
 Zero-point vibrational energy     974354.1 (Joules/Mol)
                                  232.87622 (Kcal/Mol)
 Warning -- explicit consideration of  32 degrees of freedom as
           vibrations may cause significant error
 Vibrational temperatures:     42.79    90.63    99.25   137.10   158.95
          (Kelvin)            229.91   237.55   263.78   287.90   319.15
                              360.77   381.37   400.77   430.83   445.28
                              463.19   465.65   480.97   517.49   540.87
                              576.85   598.43   611.38   626.60   672.60
                              688.37   714.03   739.67   806.44   832.83
                              849.63   885.10   900.97   977.89   981.12
                             1064.91  1081.73  1083.44  1166.16  1217.54
                             1228.59  1256.68  1326.46  1359.72  1392.56
                             1414.60  1421.45  1437.38  1449.06  1464.95
                             1494.21  1523.08  1528.09  1532.72  1545.48
                             1549.33  1563.47  1597.80  1602.58  1612.12
                             1627.94  1633.05  1645.77  1664.61  1675.58
                             1688.20  1702.29  1716.58  1744.89  1751.13
                             1765.57  1775.12  1798.21  1812.22  1832.09
                             1843.02  1855.32  1857.75  1865.41  1874.29
                             1889.16  1897.73  1913.08  1921.76  1927.47
                             1943.45  1949.73  1961.00  1983.09  2002.80
                             2010.33  2021.55  2053.76  2091.74  2100.70
                             2109.86  2121.20  2126.01  2144.23  2162.20
                             4682.21  4683.52  4685.91  4688.92  4702.82
                             4705.50  4709.39  4717.08  4719.48  4727.24
                             4730.75  4741.66  4748.63  4762.12  4779.02
                             4812.07  4840.46  4847.43  4852.10  4853.80
                             5597.50  5597.72

 Zero-point correction=                           0.371112 (Hartree/Particle)
 Thermal correction to Energy=                    0.389645
 Thermal correction to Enthalpy=                  0.390589
 Thermal correction to Gibbs Free Energy=         0.324880
 Sum of electronic and zero-point Energies=          -1297.621696
 Sum of electronic and thermal Energies=             -1297.603162
 Sum of electronic and thermal Enthalpies=           -1297.602218
 Sum of electronic and thermal Free Energies=        -1297.667928

                     E (Thermal)             CV                S
                      KCal/Mol        Cal/Mol-Kelvin    Cal/Mol-Kelvin
 Total                  244.506             76.083            138.297
 Electronic               0.000              0.000              0.000
 Translational            0.889              2.981             43.384
 Rotational               0.889              2.981             35.207
 Vibrational            242.728             70.121             59.705
 Vibration     1          0.594              1.984              5.847
 Vibration     2          0.597              1.972              4.361
 Vibration     3          0.598              1.969              4.182
 Vibration     4          0.603              1.953              3.548
 Vibration     5          0.606              1.941              3.261
 Vibration     6          0.622              1.892              2.552
 Vibration     7          0.624              1.885              2.490
 Vibration     8          0.631              1.863              2.294
 Vibration     9          0.638              1.840              2.132
 Vibration    10          0.648              1.808              1.944
 Vibration    11          0.663              1.762              1.725
 Vibration    12          0.671              1.737              1.628
 Vibration    13          0.679              1.713              1.543
 Vibration    14          0.692              1.675              1.420
 Vibration    15          0.699              1.656              1.365
 Vibration    16          0.707              1.632              1.300
 Vibration    17          0.708              1.628              1.292
 Vibration    18          0.716              1.607              1.239
 Vibration    19          0.734              1.555              1.124
 Vibration    20          0.747              1.521              1.056
 Vibration    21          0.767              1.468              0.959
 Vibration    22          0.779              1.436              0.906
 Vibration    23          0.787              1.416              0.875
 Vibration    24          0.796              1.393              0.841
 Vibration    25          0.825              1.322              0.745
 Vibration    26          0.835              1.298              0.714
 Vibration    27          0.852              1.258              0.667
 Vibration    28          0.869              1.219              0.624
 Vibration    29          0.916              1.117              0.523
 Vibration    30          0.935              1.077              0.488
 Vibration    31          0.948              1.052              0.466
 Vibration    32          0.975              1.000              0.424

 Normal termination of Gaussian 09 at Mon Mar 28 09:25:55 2016.
