 Gaussian 09, Revision B.01,
 Gaussian 09:  EM64L-G09RevB.01 12-Aug-2010

 -------------------------------------------------
 # freq=raman b3lyp/6-31+g(2d,p) geom=connectivity
 -------------------------------------------------

 -----------------
 280 6697/6697.com
 -----------------
 Symbolic Z-matrix:
 Charge =  0 Multiplicity = 1

                         Standard orientation:
 ---------------------------------------------------------------------
 Center     Atomic      Atomic             Coordinates (Angstroms)
 Number     Number       Type             X           Y           Z
 ---------------------------------------------------------------------
      1          8           0        5.062437   -0.508547    0.019023
      2          6           0        3.710784   -0.136264    0.328209
      3          6           0        3.369329    1.247373   -0.200580
      4          8           0        4.142055    2.346532    0.302302
      5          1           0        5.067226    1.967331    0.325203
      6          6           0        1.890088    1.515323    0.029253
      7          8           0        1.393233    2.788309   -0.409285
      8          1           0        0.483476    2.997499   -0.050070
      9          6           0        2.975754   -2.612933    0.164963
     10          8           0        4.059178   -3.188562   -0.579197
     11          1           0        3.975602   -4.162864   -0.791345
     12          6           0        2.764199   -1.169903   -0.260056
     13          8           0        1.390754   -0.916118    0.070234
     14          6           0        0.931032    0.387788   -0.314137
     15          8           0       -0.222736    0.569651    0.519896
     16          6           0       -1.499489    0.153674    0.012256
     17          6           0       -2.008974   -1.231092    0.376570
     18          8           0       -1.084110   -2.222744   -0.092905
     19          1           0       -0.175192   -1.829876    0.043024
     20          6           0       -3.443275   -1.526491   -0.030051
     21          8           0       -4.040151   -2.559586    0.767410
     22          1           0       -4.938911   -2.686279    0.348282
     23          6           0       -2.290810    2.674190   -0.202787
     24          8           0       -1.124761    3.349189    0.291209
     25          1           0       -1.338818    4.295106    0.535067
     26          6           0       -2.555648    1.231127    0.194242
     27          8           0       -3.767930    0.868424   -0.482618
     28          6           0       -4.347277   -0.311048    0.095802
     29          8           0       -5.495068   -0.584600   -0.719965
     30          1           0       -6.228069   -0.853212   -0.161254
     31          1           0        5.517395   -0.760847    0.825842
     32          1           0        3.205820   -2.645283    1.209436
     33          1           0        2.082136   -3.171890   -0.019191
     34          1           0        2.858970   -1.126145   -1.324952
     35          1           0        3.593338   -0.132692    1.391738
     36          1           0        3.522454    1.220544   -1.259227
     37          1           0        1.821399    1.579300    1.095128
     38          1           0        0.661610    0.411546   -1.349389
     39          1           0       -3.141394    3.247574    0.101577
     40          1           0       -2.245940    2.705492   -1.271387
     41          1           0       -2.782567    1.247285    1.239779
     42          1           0       -1.352340    0.103315   -1.046381
     43          1           0       -1.987973   -1.284146    1.445048
     44          1           0       -3.444864   -1.844614   -1.051665
     45          1           0       -4.630860   -0.143195    1.113793
 ---------------------------------------------------------------------

 SCF Done:  E(RB3LYP) =  -1297.98733387     A.U. after   13 cycles

 The electronic state is 1-A.
 Alpha  occ. eigenvalues --  -19.18939 -19.18347 -19.18242 -19.18091 -19.17684
 Alpha  occ. eigenvalues --  -19.17107 -19.16819 -19.15656 -19.15643 -19.13950
 Alpha  occ. eigenvalues --  -19.12746 -10.30672 -10.30291 -10.26061 -10.25606
 Alpha  occ. eigenvalues --  -10.25510 -10.25303 -10.25253 -10.24793 -10.24395
 Alpha  occ. eigenvalues --  -10.24345 -10.24279 -10.23848  -1.09898  -1.09323
 Alpha  occ. eigenvalues --   -1.05597  -1.05238  -1.04219  -1.03777  -1.02984
 Alpha  occ. eigenvalues --   -1.02328  -1.01895  -1.00989  -0.99442  -0.81795
 Alpha  occ. eigenvalues --   -0.80584  -0.79200  -0.78030  -0.72197  -0.70093
 Alpha  occ. eigenvalues --   -0.67501  -0.65203  -0.63400  -0.63028  -0.61030
 Alpha  occ. eigenvalues --   -0.59867  -0.56505  -0.55888  -0.55229  -0.54813
 Alpha  occ. eigenvalues --   -0.54461  -0.53177  -0.52766  -0.51984  -0.51164
 Alpha  occ. eigenvalues --   -0.50566  -0.50042  -0.49461  -0.48549  -0.46599
 Alpha  occ. eigenvalues --   -0.45882  -0.44911  -0.44196  -0.43907  -0.43426
 Alpha  occ. eigenvalues --   -0.43052  -0.41618  -0.41015  -0.39903  -0.39297
 Alpha  occ. eigenvalues --   -0.38769  -0.38265  -0.37869  -0.36307  -0.35795
 Alpha  occ. eigenvalues --   -0.35606  -0.34984  -0.34701  -0.33959  -0.32650
 Alpha  occ. eigenvalues --   -0.32461  -0.31454  -0.30735  -0.30620  -0.30002
 Alpha  occ. eigenvalues --   -0.29456  -0.28722  -0.28470  -0.27331  -0.26500
 Alpha  occ. eigenvalues --   -0.26211
 Alpha virt. eigenvalues --   -0.02256  -0.02143  -0.01728  -0.00094   0.00574
 Alpha virt. eigenvalues --    0.01283   0.01834   0.02507   0.03158   0.03531
 Alpha virt. eigenvalues --    0.03773   0.04250   0.04706   0.05170   0.05742

 Mulliken atomic charges:
              1
     1  O   -0.536848
     2  C   -0.022355
     3  C    0.096751
     4  O   -0.537586
     5  H    0.336714
     6  C    0.028728
     7  O   -0.605729
     8  H    0.427965
     9  C   -0.151906
    10  O   -0.530451
    11  H    0.343751
    12  C    0.210749
    13  O   -0.242654
    14  C    0.171933
    15  O   -0.202535
    16  C    0.184126
    17  C    0.093042
    18  O   -0.566255
    19  H    0.392169
    20  C    0.138447
    21  O   -0.525335
    22  H    0.322608
    23  C   -0.305292
    24  O   -0.567547
    25  H    0.362454
    26  C   -0.111753
    27  O   -0.253399
    28  C    0.088813
    29  O   -0.537950
    30  H    0.333512
    31  H    0.339092
    32  H    0.136087
    33  H    0.148187
    34  H    0.117793
    35  H    0.118308
    36  H    0.120607
    37  H    0.126091
    38  H    0.127800
    39  H    0.147230
    40  H    0.162244
    41  H    0.109028
    42  H    0.108031
    43  H    0.121066
    44  H    0.145554
    45  H    0.138714
 Sum of Mulliken atomic charges =   0.00000

 Dipole moment (field-independent basis, Debye):
    X=             -2.6532    Y=             -0.3031    Z=              2.5337  Tot=              3.6812
 Quadrupole moment (field-independent basis, Debye-Ang):
   XX=           -118.2075   YY=           -134.9957   ZZ=           -139.3136
   XY=            -17.3825   XZ=              0.7680   YZ=              4.8880

  Exact polarizability: 233.482   1.957 197.876   0.376   0.381 145.346
 Approx polarizability: 273.647   2.175 257.937  -0.409   1.580 241.379

 ******    8 imaginary frequencies (negative Signs) ******

                     1                      2                      3
                     A                      A                      A
 Frequencies --  -262.2583              -261.2659              -234.8921
 Red. masses --     1.7318                 1.2375                 1.4138
 Frc consts  --     0.0702                 0.0498                 0.0460
 IR Inten    --     1.5873               123.9823                73.6786
 Raman Activ --     0.0301                 1.0205                 0.5326

                     4                      5                      6
                     A                      A                      A
 Frequencies --  -188.3533               -75.8814               -57.2275
 Red. masses --     1.5741                 6.4290                 6.1672
 Frc consts  --     0.0329                 0.0218                 0.0119
 IR Inten    --    31.7894                 0.9132                 0.5941
 Raman Activ --     0.4108                 0.0255                 0.0479

                     7                      8                      9
                     A                      A                      A
 Frequencies --   -42.8936               -14.7538                35.9479
 Red. masses --     6.7266                 6.6285                 6.7302
 Frc consts  --     0.0073                 0.0009                 0.0051
 IR Inten    --     0.2715                 0.2835                 2.6509
 Raman Activ --     0.0298                 0.0166                 0.0212

                    10                     11                     12
                     A                      A                      A
 Frequencies --    78.5401                92.2000               106.9755
 Red. masses --     6.0964                 6.2635                 6.0445
 Frc consts  --     0.0222                 0.0314                 0.0408
 IR Inten    --     1.4588                 3.1825                 1.1381
 Raman Activ --     0.3437                 0.0588                 0.0649

                    13                     14                     15
                     A                      A                      A
 Frequencies --   149.9786               175.7184               187.8615
 Red. masses --     5.8567                 5.9718                 6.6482
 Frc consts  --     0.0776                 0.1086                 0.1382
 IR Inten    --     3.3870                 2.0463                 0.3584
 Raman Activ --     0.2607                 0.9612                 0.5566

                    16                     17                     18
                     A                      A                      A
 Frequencies --   208.4333               232.2395               251.8985
 Red. masses --     7.1439                 5.8523                 4.5415
 Frc consts  --     0.1829                 0.1860                 0.1698
 IR Inten    --     0.5096                 1.7854                20.2561
 Raman Activ --     2.5836                 0.3512                 0.2489

                    19                     20                     21
                     A                      A                      A
 Frequencies --   259.9916               280.0692               297.5477
 Red. masses --     4.7566                 4.6001                 4.7105
 Frc consts  --     0.1894                 0.2126                 0.2457
 IR Inten    --     2.6696                 3.9030                 0.5907
 Raman Activ --     0.1550                 0.1406                 0.6953

                    22                     23                     24
                     A                      A                      A
 Frequencies --   314.5282               317.5276               328.1358
 Red. masses --     5.9683                 5.1360                 6.0797
 Frc consts  --     0.3479                 0.3051                 0.3857
 IR Inten    --     7.1584                 1.9712                 0.6595
 Raman Activ --     1.1087                 2.9486                 1.4178

                    25                     26                     27
                     A                      A                      A
 Frequencies --   344.8631               359.0418               379.3249
 Red. masses --     6.5694                 5.5890                 5.6858
 Frc consts  --     0.4603                 0.4245                 0.4820
 IR Inten    --    17.4026                 4.0421                 1.7003
 Raman Activ --     2.2816                 1.1422                 0.8090

                    28                     29                     30
                     A                      A                      A
 Frequencies --   402.4475               416.7873               426.9071
 Red. masses --     4.2228                 6.8869                 4.5290
 Frc consts  --     0.4030                 0.7049                 0.4863
 IR Inten    --    16.2029                 4.8576                 4.0797
 Raman Activ --     5.4556                 5.9702                 1.1431

                    31                     32                     33
                     A                      A                      A
 Frequencies --   436.2921               467.9599               488.2454
 Red. masses --     5.3328                 4.2482                 4.1490
 Frc consts  --     0.5981                 0.5481                 0.5827
 IR Inten    --     1.4219                 3.4987                11.1900
 Raman Activ --     3.1336                 3.7162                 0.4518

                    34                     35                     36
                     A                      A                      A
 Frequencies --   508.7930               512.5271               567.0891
 Red. masses --     4.0203                 3.2052                 4.0022
 Frc consts  --     0.6132                 0.4961                 0.7583
 IR Inten    --    16.5904                 1.5349                 3.2909
 Raman Activ --     0.9811                 6.7317                 1.6209

                    37                     38                     39
                     A                      A                      A
 Frequencies --   571.6820               598.9746               613.1247
 Red. masses --     3.1284                 6.1692                 4.6343
 Frc consts  --     0.6024                 1.3041                 1.0264
 IR Inten    --    39.3900                 7.0939                21.7394
 Raman Activ --     0.6254                 0.9181                 0.5565

                    40                     41                     42
                     A                      A                      A
 Frequencies --   630.8102               654.0773               670.4240
 Red. masses --     3.3288                 1.3752                 1.1056
 Frc consts  --     0.7804                 0.3466                 0.2928
 IR Inten    --    21.6596                75.1936               141.6719
 Raman Activ --     0.4330                 2.1454                 0.9546

                    43                     44                     45
                     A                      A                      A
 Frequencies --   686.5380               748.2249               765.4568
 Red. masses --     2.9530                 1.0834                 1.0878
 Frc consts  --     0.8200                 0.3574                 0.3755
 IR Inten    --     3.0928                88.9637                85.5197
 Raman Activ --     2.1815                 1.4440                 1.3642

                    46                     47                     48
                     A                      A                      A
 Frequencies --   802.2103               820.1872               857.0900
 Red. masses --     1.0699                 1.1405                 1.7928
 Frc consts  --     0.4057                 0.4521                 0.7760
 IR Inten    --    65.9923                55.3628                 3.8536
 Raman Activ --     1.0180                 0.9424                 0.4529

                    49                     50                     51
                     A                      A                      A
 Frequencies --   864.9791               921.7171               955.9113
 Red. masses --     1.5778                 5.8587                 4.4023
 Frc consts  --     0.6955                 2.9326                 2.3701
 IR Inten    --     6.4659               117.9812                60.6730
 Raman Activ --     0.7934                 2.5769                 0.5233

                    52                     53                     54
                     A                      A                      A
 Frequencies --   968.0022               982.0849               991.8226
 Red. masses --     6.6777                 6.0641                 5.1281
 Frc consts  --     3.6866                 3.4460                 2.9722
 IR Inten    --   136.1687                87.4253                29.6391
 Raman Activ --     1.5396                 2.6278                 0.4752

                    55                     56                     57
                     A                      A                      A
 Frequencies --   997.4047              1003.6884              1016.5630
 Red. masses --     7.5345                 5.9016                 6.0098
 Frc consts  --     4.4162                 3.5028                 3.6591
 IR Inten    --   323.8145               110.8580               179.4911
 Raman Activ --     2.6151                 2.7246                 2.4112

                    58                     59                     60
                     A                      A                      A
 Frequencies --  1039.0519              1041.8691              1054.3521
 Red. masses --     6.7534                 4.3444                 6.4437
 Frc consts  --     4.2958                 2.7785                 4.2205
 IR Inten    --   164.9398               173.1682               188.2498
 Raman Activ --    10.2759                 7.4722                 2.1257

                    61                     62                     63
                     A                      A                      A
 Frequencies --  1066.9495              1069.0315              1078.7997
 Red. masses --     5.8300                 4.3868                 4.1641
 Frc consts  --     3.9103                 2.9538                 2.8553
 IR Inten    --    19.2441                38.1682                26.4258
 Raman Activ --     2.3654                 5.7520                15.6529

                    64                     65                     66
                     A                      A                      A
 Frequencies --  1099.0332              1103.0305              1118.3090
 Red. masses --     3.0837                 3.6810                 2.8867
 Frc consts  --     2.1945                 2.6387                 2.1271
 IR Inten    --    39.4760                16.6501                24.5109
 Raman Activ --    13.0111                 3.0139                 3.2304

                    67                     68                     69
                     A                      A                      A
 Frequencies --  1122.2210              1126.1899              1127.7330
 Red. masses --     2.6829                 2.2197                 3.0098
 Frc consts  --     1.9907                 1.6587                 2.2553
 IR Inten    --     2.7924                52.5211                 1.9360
 Raman Activ --     2.3404                 2.0360                 5.6338

                    70                     71                     72
                     A                      A                      A
 Frequencies --  1149.8603              1158.6363              1162.7014
 Red. masses --     2.1166                 1.8791                 1.7639
 Frc consts  --     1.6488                 1.4863                 1.4049
 IR Inten    --    33.7833                16.7442                 3.7232
 Raman Activ --     2.6820                 7.3067                 0.4674

                    73                     74                     75
                     A                      A                      A
 Frequencies --  1180.8280              1192.3066              1197.4331
 Red. masses --     1.5599                 1.3781                 1.7307
 Frc consts  --     1.2815                 1.1543                 1.4621
 IR Inten    --     9.9398                 9.7609                23.8346
 Raman Activ --     2.1235                 1.3864                 3.8075

                    76                     77                     78
                     A                      A                      A
 Frequencies --  1209.4387              1224.1177              1238.2709
 Red. masses --     1.4951                 1.7022                 1.1604
 Frc consts  --     1.2885                 1.5029                 1.0483
 IR Inten    --    35.6236                 5.3312                 3.6690
 Raman Activ --     3.8371                 1.4947                 1.6041

                    79                     80                     81
                     A                      A                      A
 Frequencies --  1241.8972              1251.1782              1255.4324
 Red. masses --     1.2667                 1.2640                 1.2504
 Frc consts  --     1.1511                 1.1658                 1.1611
 IR Inten    --     6.4269                 9.3499                 3.2233
 Raman Activ --     1.3546                 0.4038                 2.6041

                    82                     83                     84
                     A                      A                      A
 Frequencies --  1260.6970              1279.9955              1282.0889
 Red. masses --     1.2683                 1.3388                 1.3551
 Frc consts  --     1.1877                 1.2923                 1.3124
 IR Inten    --     7.0634                33.9365                12.5103
 Raman Activ --     0.7540                 1.3568                 1.2940

                    85                     86                     87
                     A                      A                      A
 Frequencies --  1293.1400              1302.1462              1311.7198
 Red. masses --     1.2200                 1.2895                 1.3017
 Frc consts  --     1.2020                 1.2883                 1.3196
 IR Inten    --     3.9372                15.4200                10.5284
 Raman Activ --     1.4461                 0.8927                 4.8233

                    88                     89                     90
                     A                      A                      A
 Frequencies --  1318.9370              1321.5850              1331.4300
 Red. masses --     1.2270                 1.2904                 1.3372
 Frc consts  --     1.2576                 1.3279                 1.3966
 IR Inten    --    35.3053                44.9552                20.0854
 Raman Activ --     2.9825                 7.3014                 5.2978

                    91                     92                     93
                     A                      A                      A
 Frequencies --  1341.1775              1352.9881              1355.8734
 Red. masses --     1.2369                 1.2421                 1.2775
 Frc consts  --     1.3109                 1.3397                 1.3837
 IR Inten    --     9.1032                13.9614                17.0965
 Raman Activ --    11.0777                 2.1364                 3.6384

                    94                     95                     96
                     A                      A                      A
 Frequencies --  1358.7226              1369.3428              1376.0427
 Red. masses --     1.3584                 1.2263                 1.4653
 Frc consts  --     1.4775                 1.3548                 1.6347
 IR Inten    --     3.6512                30.7043                40.0653
 Raman Activ --     3.5796                 1.4903                 7.9475

                    97                     98                     99
                     A                      A                      A
 Frequencies --  1385.8236              1389.4821              1412.4556
 Red. masses --     1.3799                 1.4931                 1.2643
 Frc consts  --     1.5614                 1.6984                 1.4861
 IR Inten    --     2.0685                 9.1244                 2.5797
 Raman Activ --     3.7274                 8.6400                 7.9986

                   100                    101                    102
                     A                      A                      A
 Frequencies --  1421.3615              1443.1435              1460.7692
 Red. masses --     1.4924                 1.3562                 1.3637
 Frc consts  --     1.7765                 1.6642                 1.7144
 IR Inten    --    20.9196                26.3359                34.0668
 Raman Activ --     0.7176                 1.2176                 0.8312

                   103                    104                    105
                     A                      A                      A
 Frequencies --  1463.9257              1465.8714              1469.3979
 Red. masses --     1.3096                 1.0871                 1.1324
 Frc consts  --     1.6535                 1.3763                 1.4406
 IR Inten    --    16.4986                 8.3532                 6.7161
 Raman Activ --     0.8228                 3.5142                 4.6211

                   106                    107                    108
                     A                      A                      A
 Frequencies --  1480.0340              1527.4811              3240.4333
 Red. masses --     1.3254                 1.2413                 1.0699
 Frc consts  --     1.7106                 1.7064                 6.6193
 IR Inten    --    55.3350                49.5226               790.8691
 Raman Activ --     1.5233                 1.8736               179.3265

                   109                    110                    111
                     A                      A                      A
 Frequencies --  3250.2296              3257.6176              3258.3030
 Red. masses --     1.0790                 1.0717                 1.0657
 Frc consts  --     6.7161                 6.7007                 6.6658
 IR Inten    --     3.1632                 7.1502                15.9749
 Raman Activ --   122.9962                12.3429                67.2010

                   112                    113                    114
                     A                      A                      A
 Frequencies --  3259.7305              3266.8811              3269.5781
 Red. masses --     1.0782                 1.0610                 1.0816
 Frc consts  --     6.7502                 6.6718                 6.8123
 IR Inten    --    99.4642                 8.5500                15.1227
 Raman Activ --   134.5538               135.9199                63.6149

                   115                    116                    117
                     A                      A                      A
 Frequencies --  3273.7751              3276.4706              3286.6838
 Red. masses --     1.0830                 1.0822                 1.0851
 Frc consts  --     6.8387                 6.8448                 6.9061
 IR Inten    --    93.3459                22.1243                12.1194
 Raman Activ --    16.8099                88.3158               108.2671

                   118                    119                    120
                     A                      A                      A
 Frequencies --  3289.6973              3293.8635              3299.2481
 Red. masses --     1.0839                 1.0810                 1.0821
 Frc consts  --     6.9111                 6.9102                 6.9399
 IR Inten    --    41.5915               377.8425               212.1465
 Raman Activ --    18.8998                40.5501                63.4350

                   121                    122                    123
                     A                      A                      A
 Frequencies --  3301.3704              3320.0053              3323.2548
 Red. masses --     1.0812                 1.1061                 1.1074
 Frc consts  --     6.9432                 7.1831                 7.2056
 IR Inten    --   264.6636                44.6043                33.9879
 Raman Activ --    64.0322                37.6374                34.2259

                   124                    125                    126
                     A                      A                      A
 Frequencies --  3361.4257              3366.6623              3369.8200
 Red. masses --     1.0703                 1.0650                 1.0648
 Frc consts  --     7.1253                 7.1119                 7.1243
 IR Inten    --    40.6880                31.8879                26.1909
 Raman Activ --   176.7028               104.0667               114.8712

                   127                    128                    129
                     A                      A                      A
 Frequencies --  3375.1906              3888.7649              3890.5041
 Red. masses --     1.0689                 1.0677                 1.0673
 Frc consts  --     7.1744                 9.5129                 9.5179
 IR Inten    --    64.1443                74.5192                64.1280
 Raman Activ --   157.2343                84.2714               110.6289

 - Thermochemistry -
 -------------------
 Temperature   298.150 Kelvin.  Pressure   1.00000 Atm.
 Atom     1 has atomic number  8 and mass  15.99491

 Molecular mass:   342.11621 amu.
 Principal axes and moments of inertia in atomic units:
                           1         2         3
     Eigenvalues --  4460.79578********************
           X            0.99997  -0.00793  -0.00018
           Y            0.00793   0.99997   0.00057
           Z            0.00017  -0.00057   1.00000
 This molecule is an asymmetric top.
 Rotational symmetry number  1.
 Warning -- assumption of classical behavior for rotation
           may cause significant error
 Rotational temperatures (Kelvin)      0.01942     0.00698     0.00528
 Rotational constants (GHZ):           0.40458     0.14537     0.10993
    8 imaginary frequencies ignored.
 Zero-point vibrational energy     973477.1 (Joules/Mol)
                                  232.66660 (Kcal/Mol)
 Warning -- explicit consideration of  31 degrees of freedom as
           vibrations may cause significant error
 Vibrational temperatures:     51.72   113.00   132.66   153.91   215.79
          (Kelvin)            252.82   270.29   299.89   334.14   362.43
                              374.07   402.96   428.10   452.54   456.85
                              472.11   496.18   516.58   545.76   579.03
                              599.66   614.22   627.73   673.29   702.48
                              732.04   737.41   815.91   822.52   861.79
                              882.15   907.59   941.07   964.59   987.77
                             1076.53  1101.32  1154.20  1180.07  1233.16
                             1244.51  1326.14  1375.34  1392.74  1413.00
                             1427.01  1435.04  1444.08  1462.61  1494.96
                             1499.02  1516.98  1535.10  1538.10  1552.15
                             1581.26  1587.01  1609.00  1614.62  1620.33
                             1622.55  1654.39  1667.02  1672.87  1698.95
                             1715.46  1722.84  1740.11  1761.23  1781.59
                             1786.81  1800.16  1806.28  1813.86  1841.63
                             1844.64  1860.54  1873.50  1887.27  1897.65
                             1901.46  1915.63  1929.65  1946.65  1950.80
                             1954.90  1970.18  1979.82  1993.89  1999.15
                             2032.21  2045.02  2076.36  2101.72  2106.26
                             2109.06  2114.13  2129.44  2197.70  4662.25
                             4676.35  4686.98  4687.97  4690.02  4700.31
                             4704.19  4710.23  4714.10  4728.80  4733.13
                             4739.13  4746.88  4749.93  4776.74  4781.42
                             4836.34  4843.87  4848.41  4856.14  5595.06
                             5597.56

 Zero-point correction=                           0.370778 (Hartree/Particle)
 Thermal correction to Energy=                    0.388447
 Thermal correction to Enthalpy=                  0.389391
 Thermal correction to Gibbs Free Energy=         0.326122
 Sum of electronic and zero-point Energies=          -1297.616556
 Sum of electronic and thermal Energies=             -1297.598887
 Sum of electronic and thermal Enthalpies=           -1297.597943
 Sum of electronic and thermal Free Energies=        -1297.661212

                     E (Thermal)             CV                S
                      KCal/Mol        Cal/Mol-Kelvin    Cal/Mol-Kelvin
 Total                  243.754             74.164            133.161
 Electronic               0.000              0.000              0.000
 Translational            0.889              2.981             43.384
 Rotational               0.889              2.981             35.163
 Vibrational            241.977             68.202             54.615
 Vibration     1          0.594              1.982              5.471
 Vibration     2          0.600              1.964              3.927
 Vibration     3          0.602              1.955              3.613
 Vibration     4          0.606              1.944              3.323
 Vibration     5          0.618              1.903              2.673
 Vibration     6          0.628              1.872              2.373
 Vibration     7          0.633              1.857              2.249
 Vibration     8          0.642              1.828              2.057
 Vibration     9          0.653              1.792              1.862
 Vibration    10          0.664              1.760              1.717
 Vibration    11          0.668              1.746              1.662
 Vibration    12          0.680              1.710              1.533
 Vibration    13          0.691              1.678              1.431
 Vibration    14          0.702              1.646              1.338
 Vibration    15          0.704              1.640              1.323
 Vibration    16          0.711              1.619              1.269
 Vibration    17          0.723              1.586              1.190
 Vibration    18          0.734              1.557              1.126
 Vibration    19          0.749              1.514              1.042
 Vibration    20          0.768              1.465              0.954
 Vibration    21          0.780              1.434              0.903
 Vibration    22          0.789              1.412              0.869
 Vibration    23          0.797              1.391              0.838
 Vibration    24          0.825              1.321              0.743
 Vibration    25          0.844              1.276              0.688
 Vibration    26          0.864              1.231              0.637
 Vibration    27          0.868              1.222              0.628
 Vibration    28          0.923              1.102              0.510
 Vibration    29          0.928              1.093              0.501
 Vibration    30          0.957              1.034              0.451
 Vibration    31          0.972              1.004              0.428

 Normal termination of Gaussian 09 at Mon Mar 21 22:59:39 2016.
