 Gaussian 09, Revision B.01,
 Gaussian 09:  EM64L-G09RevB.01 12-Aug-2010

 -------------------------------------------------
 # freq=raman b3lyp/6-31+g(2d,p) geom=connectivity
 -------------------------------------------------

 -----------------
 550 7166/7166.com
 -----------------
 Symbolic Z-matrix:
 Charge =  0 Multiplicity = 1

                         Standard orientation:
 ---------------------------------------------------------------------
 Center     Atomic      Atomic             Coordinates (Angstroms)
 Number     Number       Type             X           Y           Z
 ---------------------------------------------------------------------
      1          8           0        5.018432   -0.421162   -0.737134
      2          6           0        3.792303   -0.154213   -0.043353
      3          6           0        3.305620    1.259862   -0.319182
      4          8           0        4.265924    2.312233   -0.143346
      5          1           0        5.193453    2.080528   -0.434914
      6          6           0        1.983243    1.603503    0.345812
      7          8           0        1.399593    2.868865    0.002824
      8          1           0        1.951881    3.635641   -0.323767
      9          6           0        3.161979   -2.587700    0.198057
     10          8           0        2.106171   -3.560214    0.181645
     11          1           0        2.337588   -4.518884    0.345507
     12          6           0        2.703992   -1.201081   -0.222197
     13          8           0        1.621931   -0.849818    0.651907
     14          6           0        1.105179    0.382435    0.128180
     15          8           0       -0.137293    0.376222    0.846049
     16          6           0       -1.313814    0.251299    0.034075
     17          6           0       -1.843090   -1.154314    0.271334
     18          8           0       -0.951161   -2.203981   -0.131916
     19          1           0        0.000293   -2.008254    0.106789
     20          6           0       -3.170554   -1.400100   -0.426471
     21          8           0       -3.535871   -2.784386   -0.519504
     22          1           0       -2.738208   -3.267613   -0.882132
     23          6           0       -2.126033    2.680471    0.355607
     24          8           0       -2.569519    3.390666   -0.809433
     25          1           0       -2.081267    4.263160   -0.823518
     26          6           0       -2.351142    1.199980    0.612282
     27          8           0       -3.688561    0.992257    0.137854
     28          6           0       -4.112835   -0.378327    0.188853
     29          8           0       -5.388951   -0.567658   -0.440809
     30          1           0       -6.086594   -0.308487    0.165594
     31          1           0        5.761297   -0.206466   -0.168225
     32          1           0        3.561534   -2.531532    1.189067
     33          1           0        3.935761   -2.909862   -0.467055
     34          1           0        2.367802   -1.215020   -1.237914
     35          1           0        4.040964   -0.176100    0.997122
     36          1           0        3.090490    1.266217   -1.367313
     37          1           0        2.179581    1.647804    1.396711
     38          1           0        0.910462    0.268743   -0.917793
     39          1           0       -1.067915    2.830862    0.407275
     40          1           0       -2.552105    3.192728    1.192838
     41          1           0       -2.358480    1.054415    1.672309
     42          1           0       -1.117481    0.443217   -1.000101
     43          1           0       -2.007965   -1.259635    1.323296
     44          1           0       -3.029794   -1.082642   -1.438552
     45          1           0       -4.225959   -0.633909    1.221704
 ---------------------------------------------------------------------

 SCF Done:  E(RB3LYP) =  -1297.95814220     A.U. after   14 cycles

 The electronic state is 1-A.
 Alpha  occ. eigenvalues --  -19.19737 -19.19492 -19.18621 -19.17828 -19.17340
 Alpha  occ. eigenvalues --  -19.16633 -19.15866 -19.14918 -19.14438 -19.14117
 Alpha  occ. eigenvalues --  -19.13963 -10.31500 -10.28300 -10.27612 -10.27205
 Alpha  occ. eigenvalues --  -10.27161 -10.26902 -10.25354 -10.24695 -10.24458
 Alpha  occ. eigenvalues --  -10.22924 -10.22839 -10.21901  -1.11182  -1.07615
 Alpha  occ. eigenvalues --   -1.06421  -1.05184  -1.04330  -1.03255  -1.02683
 Alpha  occ. eigenvalues --   -1.01882  -1.01148  -1.00220  -0.99105  -0.83102
 Alpha  occ. eigenvalues --   -0.82295  -0.78884  -0.77713  -0.72565  -0.69700
 Alpha  occ. eigenvalues --   -0.67433  -0.65245  -0.63910  -0.62879  -0.60834
 Alpha  occ. eigenvalues --   -0.59595  -0.58016  -0.56338  -0.55436  -0.54342
 Alpha  occ. eigenvalues --   -0.53586  -0.53086  -0.52772  -0.52499  -0.51359
 Alpha  occ. eigenvalues --   -0.49899  -0.49458  -0.49294  -0.47797  -0.47349
 Alpha  occ. eigenvalues --   -0.46577  -0.44624  -0.43995  -0.43543  -0.43357
 Alpha  occ. eigenvalues --   -0.42714  -0.41795  -0.40670  -0.39870  -0.39447
 Alpha  occ. eigenvalues --   -0.38532  -0.38071  -0.36604  -0.36210  -0.36005
 Alpha  occ. eigenvalues --   -0.35346  -0.34960  -0.34321  -0.33216  -0.33044
 Alpha  occ. eigenvalues --   -0.32691  -0.32007  -0.30366  -0.29876  -0.29575
 Alpha  occ. eigenvalues --   -0.29531  -0.29320  -0.27575  -0.26944  -0.26087
 Alpha  occ. eigenvalues --   -0.25695
 Alpha virt. eigenvalues --   -0.04111  -0.02005  -0.01285  -0.00260   0.00648
 Alpha virt. eigenvalues --    0.00951   0.01786   0.02350   0.02617   0.02991
 Alpha virt. eigenvalues --    0.03947   0.04326   0.04618   0.05152   0.05519

 Mulliken atomic charges:
              1
     1  O   -0.540908
     2  C   -0.189442
     3  C    0.312178
     4  O   -0.592738
     5  H    0.336882
     6  C   -0.248129
     7  O   -0.574737
     8  H    0.369205
     9  C   -0.353316
    10  O   -0.540158
    11  H    0.354792
    12  C    0.276078
    13  O   -0.234966
    14  C    0.401170
    15  O   -0.252377
    16  C    0.306316
    17  C    0.286572
    18  O   -0.634309
    19  H    0.396316
    20  C   -0.124169
    21  O   -0.527160
    22  H    0.355727
    23  C   -0.450517
    24  O   -0.499217
    25  H    0.329236
    26  C    0.015774
    27  O   -0.261727
    28  C    0.365915
    29  O   -0.510777
    30  H    0.318502
    31  H    0.335574
    32  H    0.137483
    33  H    0.157417
    34  H    0.121932
    35  H    0.121124
    36  H    0.117467
    37  H    0.133161
    38  H    0.116944
    39  H    0.169871
    40  H    0.128810
    41  H    0.118357
    42  H    0.120684
    43  H    0.110471
    44  H    0.115692
    45  H    0.104995
 Sum of Mulliken atomic charges =   0.00000

 Dipole moment (field-independent basis, Debye):
    X=              9.4297    Y=              1.2177    Z=              1.9132  Tot=              9.6986
 Quadrupole moment (field-independent basis, Debye-Ang):
   XX=           -125.9386   YY=           -130.2852   ZZ=           -139.8449
   XY=             -8.5441   XZ=            -10.3326   YZ=             -1.4314

  Exact polarizability: 225.161   3.090 203.883  -1.275   0.216 145.667
 Approx polarizability: 268.882   3.197 265.105  -0.848  -0.770 241.169

 ******    7 imaginary frequencies (negative Signs) ******

                     1                      2                      3
                     A                      A                      A
 Frequencies --  -311.9860              -242.3319              -131.7301
 Red. masses --     1.6817                 1.9177                 1.4458
 Frc consts  --     0.0964                 0.0663                 0.0148
 IR Inten    --     3.5203                 8.6618               100.8303
 Raman Activ --     0.1852                 0.1277                 0.8927

                     4                      5                      6
                     A                      A                      A
 Frequencies --   -76.4608               -67.2940               -53.8526
 Red. masses --     1.9912                 2.5957                 6.3435
 Frc consts  --     0.0069                 0.0069                 0.0108
 IR Inten    --    49.4997                26.9098                 4.0664
 Raman Activ --     0.4129                 0.4597                 0.0882

                     7                      8                      9
                     A                      A                      A
 Frequencies --   -37.6283                44.6162                57.1507
 Red. masses --     6.3760                 6.6198                 6.3450
 Frc consts  --     0.0053                 0.0078                 0.0122
 IR Inten    --     5.0436                 0.1555                 2.4198
 Raman Activ --     0.0888                 0.0619                 0.0423

                    10                     11                     12
                     A                      A                      A
 Frequencies --    70.1395                97.7497               112.3623
 Red. masses --     5.2926                 4.2828                 5.8727
 Frc consts  --     0.0153                 0.0241                 0.0437
 IR Inten    --    13.0988                17.9913                 3.1682
 Raman Activ --     0.3523                 0.3082                 0.3641

                    13                     14                     15
                     A                      A                      A
 Frequencies --   119.1187               149.3971               180.4051
 Red. masses --     4.9041                 6.0873                 6.0095
 Frc consts  --     0.0410                 0.0801                 0.1152
 IR Inten    --     2.1753                 0.6714                 0.6787
 Raman Activ --     0.1469                 0.6171                 0.3090

                    16                     17                     18
                     A                      A                      A
 Frequencies --   189.6092               230.7748               244.5770
 Red. masses --     5.6802                 6.4207                 4.9454
 Frc consts  --     0.1203                 0.2015                 0.1743
 IR Inten    --     2.3646                 1.1126                 0.6430
 Raman Activ --     0.4673                 1.9489                 0.5498

                    19                     20                     21
                     A                      A                      A
 Frequencies --   259.0768               279.6292               282.5268
 Red. masses --     4.7937                 3.8913                 5.2706
 Frc consts  --     0.1896                 0.1793                 0.2479
 IR Inten    --    15.7533                12.3091                 6.4011
 Raman Activ --     0.4068                 0.4189                 1.3577

                    22                     23                     24
                     A                      A                      A
 Frequencies --   293.2257               317.9877               325.3873
 Red. masses --     5.3661                 4.9902                 4.9186
 Frc consts  --     0.2718                 0.2973                 0.3068
 IR Inten    --     6.1679                 3.9361                 4.2715
 Raman Activ --     0.6713                 0.4187                 0.1547

                    25                     26                     27
                     A                      A                      A
 Frequencies --   338.9125               350.7961               366.0369
 Red. masses --     5.8290                 6.6020                 4.0509
 Frc consts  --     0.3945                 0.4787                 0.3198
 IR Inten    --     3.0399                 0.7715                10.8338
 Raman Activ --     5.6183                 1.1020                 1.9925

                    28                     29                     30
                     A                      A                      A
 Frequencies --   399.1080               416.3050               430.4503
 Red. masses --     6.3484                 6.0632                 7.4176
 Frc consts  --     0.5958                 0.6191                 0.8098
 IR Inten    --     1.7279                11.0054                 1.9073
 Raman Activ --     2.4558                 3.6890                 0.6124

                    31                     32                     33
                     A                      A                      A
 Frequencies --   458.5273               475.6060               491.0159
 Red. masses --     3.4738                 4.6668                 3.7503
 Frc consts  --     0.4303                 0.6220                 0.5327
 IR Inten    --    11.2073                 8.6689                20.1707
 Raman Activ --     4.5014                 5.9494                 1.8067

                    34                     35                     36
                     A                      A                      A
 Frequencies --   492.8646               508.1423               551.3869
 Red. masses --     3.3724                 3.6535                 3.9774
 Frc consts  --     0.4827                 0.5558                 0.7125
 IR Inten    --    13.3005                28.4414                28.7839
 Raman Activ --     4.5001                 1.3994                 3.3641

                    37                     38                     39
                     A                      A                      A
 Frequencies --   582.5247               585.2407               589.1051
 Red. masses --     2.8071                 2.9543                 1.4329
 Frc consts  --     0.5612                 0.5962                 0.2930
 IR Inten    --    24.9496                43.5319                 7.2514
 Raman Activ --     0.4260                 1.3564                 2.7271

                    40                     41                     42
                     A                      A                      A
 Frequencies --   601.3739               622.0427               661.2008
 Red. masses --     1.4023                 2.1838                 4.4450
 Frc consts  --     0.2988                 0.4978                 1.1450
 IR Inten    --    79.9953                38.7133                 2.6727
 Raman Activ --     0.9261                 0.9323                 0.3744

                    43                     44                     45
                     A                      A                      A
 Frequencies --   676.5835               686.4543               697.0703
 Red. masses --     1.1135                 1.4122                 2.0796
 Frc consts  --     0.3003                 0.3921                 0.5954
 IR Inten    --    73.9413               118.0786                24.4835
 Raman Activ --     1.6351                 1.0233                 0.8700

                    46                     47                     48
                     A                      A                      A
 Frequencies --   707.1951               810.8996               861.0569
 Red. masses --     1.0790                 1.0508                 2.6411
 Frc consts  --     0.3180                 0.4071                 1.1537
 IR Inten    --   133.1834                62.1659                16.7066
 Raman Activ --     1.3785                 0.8630                 1.4037

                    49                     50                     51
                     A                      A                      A
 Frequencies --   866.0476               881.6699               936.1805
 Red. masses --     2.7749                 2.5803                 5.9358
 Frc consts  --     1.2263                 1.1818                 3.0651
 IR Inten    --     2.3633                24.1936                73.9923
 Raman Activ --     5.3032                 1.5976                 1.7178

                    52                     53                     54
                     A                      A                      A
 Frequencies --   961.2120               966.2618               978.3004
 Red. masses --     6.2077                 6.9219                 4.7895
 Frc consts  --     3.3792                 3.8077                 2.7008
 IR Inten    --   226.0281                66.6659               164.7598
 Raman Activ --     1.3713                 2.9908                 0.3114

                    55                     56                     57
                     A                      A                      A
 Frequencies --   993.9537              1004.7788              1015.8023
 Red. masses --     5.9938                 4.9740                 4.1700
 Frc consts  --     3.4889                 2.9587                 2.5351
 IR Inten    --    74.1946               219.8536               123.5489
 Raman Activ --     0.7185                 1.3074                 2.7095

                    58                     59                     60
                     A                      A                      A
 Frequencies --  1035.0004              1044.7494              1052.5476
 Red. masses --     4.2692                 5.4338                 3.8225
 Frc consts  --     2.6945                 3.4945                 2.4950
 IR Inten    --    20.1131               218.0702                35.0413
 Raman Activ --    12.0309                 1.7168                 1.9771

                    61                     62                     63
                     A                      A                      A
 Frequencies --  1056.8360              1064.6112              1074.7170
 Red. masses --     3.3235                 3.1043                 4.3343
 Frc consts  --     2.1870                 2.0730                 2.9496
 IR Inten    --    79.5307                89.0087               130.0611
 Raman Activ --     6.5822                 8.5904                 2.3365

                    64                     65                     66
                     A                      A                      A
 Frequencies --  1085.7774              1099.1926              1110.2702
 Red. masses --     2.4639                 3.2847                 2.6252
 Frc consts  --     1.7114                 2.3382                 1.9066
 IR Inten    --    53.8540                46.6169                27.6001
 Raman Activ --     6.2361                10.2008                 7.0079

                    67                     68                     69
                     A                      A                      A
 Frequencies --  1117.2366              1135.8467              1138.5942
 Red. masses --     2.4118                 2.2302                 2.7380
 Frc consts  --     1.7737                 1.6952                 2.0913
 IR Inten    --    19.6031                30.3239                40.8137
 Raman Activ --     4.5086                 3.7306                 2.2127

                    70                     71                     72
                     A                      A                      A
 Frequencies --  1153.2856              1156.3218              1159.4717
 Red. masses --     2.8593                 3.1173                 2.5660
 Frc consts  --     2.2407                 2.4558                 2.0325
 IR Inten    --    24.8125                64.2892                19.5998
 Raman Activ --     4.6837                 1.3391                 3.3009

                    73                     74                     75
                     A                      A                      A
 Frequencies --  1169.2431              1174.4064              1186.2894
 Red. masses --     2.0247                 2.2388                 2.0577
 Frc consts  --     1.6309                 1.8193                 1.7061
 IR Inten    --    24.0596                40.7895                 4.2428
 Raman Activ --     1.9374                 0.6022                 1.4065

                    76                     77                     78
                     A                      A                      A
 Frequencies --  1213.7900              1224.5023              1234.0498
 Red. masses --     1.4203                 1.3290                 1.1651
 Frc consts  --     1.2329                 1.1741                 1.0454
 IR Inten    --     4.9534                 6.8280                24.0890
 Raman Activ --     4.0959                 3.0445                 3.7344

                    79                     80                     81
                     A                      A                      A
 Frequencies --  1249.2192              1255.5591              1264.2085
 Red. masses --     1.2034                 1.2403                 1.2179
 Frc consts  --     1.1065                 1.1520                 1.1469
 IR Inten    --    28.0457                 6.9605                20.6040
 Raman Activ --     3.2759                 3.3603                 3.4205

                    82                     83                     84
                     A                      A                      A
 Frequencies --  1272.2388              1277.3191              1289.9945
 Red. masses --     1.2595                 1.2078                 1.2402
 Frc consts  --     1.2011                 1.1610                 1.2160
 IR Inten    --     4.7637                 6.5734                15.8257
 Raman Activ --     0.3789                 3.9952                 5.0298

                    85                     86                     87
                     A                      A                      A
 Frequencies --  1292.7045              1299.3781              1313.9658
 Red. masses --     1.2582                 1.2592                 1.4172
 Frc consts  --     1.2388                 1.2526                 1.4416
 IR Inten    --    38.1925                 9.2352                54.6515
 Raman Activ --     0.9516                 3.0031                 2.7800

                    88                     89                     90
                     A                      A                      A
 Frequencies --  1325.2402              1328.9247              1335.3667
 Red. masses --     1.2298                 1.3601                 1.2141
 Frc consts  --     1.2726                 1.4152                 1.2756
 IR Inten    --     6.1529                24.5649                 1.3177
 Raman Activ --     2.3642                 6.8681                 7.7497

                    91                     92                     93
                     A                      A                      A
 Frequencies --  1342.4142              1351.1943              1357.0543
 Red. masses --     1.2093                 1.2687                 1.1403
 Frc consts  --     1.2839                 1.3647                 1.2373
 IR Inten    --    14.5821                 8.0767                22.9844
 Raman Activ --     4.3703                 0.8171                 4.2144

                    94                     95                     96
                     A                      A                      A
 Frequencies --  1358.4384              1368.3728              1376.5629
 Red. masses --     1.2471                 1.1925                 1.4048
 Frc consts  --     1.3559                 1.3156                 1.5684
 IR Inten    --    11.4994                33.8498                20.7775
 Raman Activ --     1.5581                 2.4274                 4.4189

                    97                     98                     99
                     A                      A                      A
 Frequencies --  1385.8359              1392.6910              1397.8300
 Red. masses --     1.3390                 1.3154                 1.4155
 Frc consts  --     1.5151                 1.5032                 1.6296
 IR Inten    --    44.3178                 3.1707                10.7006
 Raman Activ --     2.5563                 3.1981                 1.5235

                   100                    101                    102
                     A                      A                      A
 Frequencies --  1405.8357              1408.0334              1414.2997
 Red. masses --     1.4121                 1.4667                 1.4684
 Frc consts  --     1.6443                 1.7132                 1.7305
 IR Inten    --     2.2709                 3.0848                16.7121
 Raman Activ --     8.3741                 0.7782                 6.7815

                   103                    104                    105
                     A                      A                      A
 Frequencies --  1421.6531              1463.6320              1469.5013
 Red. masses --     1.5236                 1.0835                 1.4514
 Frc consts  --     1.8143                 1.3675                 1.8466
 IR Inten    --    18.3911                 2.3558                84.2164
 Raman Activ --     3.9625                 5.2888                 2.8173

                   106                    107                    108
                     A                      A                      A
 Frequencies --  1474.1162              1482.4052              3252.2691
 Red. masses --     1.0783                 1.3536                 1.0649
 Frc consts  --     1.3805                 1.7526                 6.6363
 IR Inten    --     1.4460                15.4676                33.0629
 Raman Activ --     5.2600                 0.5327                88.3366

                   109                    110                    111
                     A                      A                      A
 Frequencies --  3252.6536              3255.0914              3261.2949
 Red. masses --     1.0787                 1.0816                 1.0724
 Frc consts  --     6.7238                 6.7519                 6.7200
 IR Inten    --    10.7518                10.8350                31.2497
 Raman Activ --    98.0143                85.5407                15.4689

                   112                    113                    114
                     A                      A                      A
 Frequencies --  3261.6563              3268.1695              3274.0495
 Red. masses --     1.0659                 1.0820                 1.0837
 Frc consts  --     6.6810                 6.8093                 6.8443
 IR Inten    --    15.2524                 6.1218                 3.9972
 Raman Activ --   150.0737                 2.7263                53.6289

                   115                    116                    117
                     A                      A                      A
 Frequencies --  3277.8169              3282.6413              3283.6068
 Red. masses --     1.0841                 1.0827                 1.0848
 Frc consts  --     6.8625                 6.8740                 6.8911
 IR Inten    --    29.4561                73.2420                 5.3139
 Raman Activ --    17.7059               215.8416                21.5051

                   118                    119                    120
                     A                      A                      A
 Frequencies --  3293.9734              3303.3611              3307.0982
 Red. masses --     1.0869                 1.0970                 1.0905
 Frc consts  --     6.9484                 7.0529                 7.0272
 IR Inten    --    45.2728                 8.9541                56.4285
 Raman Activ --     1.3660                53.4260                19.4438

                   121                    122                    123
                     A                      A                      A
 Frequencies --  3320.2900              3339.3331              3365.6549
 Red. masses --     1.1063                 1.0677                 1.0655
 Frc consts  --     7.1858                 7.0151                 7.1109
 IR Inten    --    35.7894               345.9738                56.7239
 Raman Activ --    48.0118               193.6434                51.4538

                   124                    125                    126
                     A                      A                      A
 Frequencies --  3369.1001              3376.3170              3376.5221
 Red. masses --     1.0674                 1.0684                 1.0667
 Frc consts  --     7.1386                 7.1758                 7.1650
 IR Inten    --    39.3605                75.2981                39.2784
 Raman Activ --   109.5062               176.0410               148.4093

                   127                    128                    129
                     A                      A                      A
 Frequencies --  3381.4970              3882.2380              3885.6643
 Red. masses --     1.0686                 1.0676                 1.0670
 Frc consts  --     7.1989                 9.4803                 9.4922
 IR Inten    --    96.3275                70.4751                54.0301
 Raman Activ --   145.8947                90.2353               144.0087

 - Thermochemistry -
 -------------------
 Temperature   298.150 Kelvin.  Pressure   1.00000 Atm.
 Atom     1 has atomic number  8 and mass  15.99491

 Molecular mass:   342.11621 amu.
 Principal axes and moments of inertia in atomic units:
                           1         2         3
     Eigenvalues --  4766.35798********************
           X            0.99997  -0.00723  -0.00265
           Y            0.00723   0.99997   0.00078
           Z            0.00264  -0.00080   1.00000
 This molecule is an asymmetric top.
 Rotational symmetry number  1.
 Warning -- assumption of classical behavior for rotation
           may cause significant error
 Rotational temperatures (Kelvin)      0.01817     0.00750     0.00551
 Rotational constants (GHZ):           0.37864     0.15637     0.11476
    7 imaginary frequencies ignored.
 Zero-point vibrational energy     969865.6 (Joules/Mol)
                                  231.80344 (Kcal/Mol)
 Warning -- explicit consideration of  33 degrees of freedom as
           vibrations may cause significant error
 Vibrational temperatures:     64.19    82.23   100.91   140.64   161.66
          (Kelvin)            171.39   214.95   259.56   272.80   332.03
                              351.89   372.75   402.32   406.49   421.89
                              457.51   468.16   487.62   504.72   526.64
                              574.23   598.97   619.32   659.72   684.29
                              706.46   709.12   731.10   793.32   838.12
                              842.03   847.59   865.24   894.98   951.32
                              973.45   987.65  1002.93  1017.49  1166.70
                             1238.87  1246.05  1268.52  1346.95  1382.97
                             1390.23  1407.55  1430.08  1445.65  1461.51
                             1489.13  1503.16  1514.38  1520.55  1531.74
                             1546.28  1562.19  1581.49  1597.43  1607.45
                             1634.23  1638.18  1659.32  1663.69  1668.22
                             1682.28  1689.71  1706.80  1746.37  1761.78
                             1775.52  1797.35  1806.47  1818.91  1830.47
                             1837.77  1856.01  1859.91  1869.51  1890.50
                             1906.72  1912.02  1921.29  1931.43  1944.06
                             1952.50  1954.49  1968.78  1980.56  1993.91
                             2003.77  2011.16  2022.68  2025.84  2034.86
                             2045.44  2105.84  2114.28  2120.92  2132.85
                             4679.28  4679.84  4683.34  4692.27  4692.79
                             4702.16  4710.62  4716.04  4722.98  4724.37
                             4739.29  4752.79  4758.17  4777.15  4804.55
                             4842.42  4847.38  4857.76  4858.06  4865.21
                             5585.67  5590.60

 Zero-point correction=                           0.369402 (Hartree/Particle)
 Thermal correction to Energy=                    0.388263
 Thermal correction to Enthalpy=                  0.389207
 Thermal correction to Gibbs Free Energy=         0.323109
 Sum of electronic and zero-point Energies=          -1297.588740
 Sum of electronic and thermal Energies=             -1297.569879
 Sum of electronic and thermal Enthalpies=           -1297.568935
 Sum of electronic and thermal Free Energies=        -1297.635033

                     E (Thermal)             CV                S
                      KCal/Mol        Cal/Mol-Kelvin    Cal/Mol-Kelvin
 Total                  243.639             77.241            139.116
 Electronic               0.000              0.000              0.000
 Translational            0.889              2.981             43.384
 Rotational               0.889              2.981             35.113
 Vibrational            241.861             71.279             60.618
 Vibration     1          0.595              1.980              5.043
 Vibration     2          0.596              1.975              4.553
 Vibration     3          0.598              1.968              4.149
 Vibration     4          0.603              1.951              3.499
 Vibration     5          0.607              1.939              3.228
 Vibration     6          0.609              1.933              3.115
 Vibration     7          0.618              1.903              2.680
 Vibration     8          0.629              1.866              2.324
 Vibration     9          0.633              1.854              2.232
 Vibration    10          0.652              1.794              1.873
 Vibration    11          0.660              1.772              1.769
 Vibration    12          0.668              1.747              1.668
 Vibration    13          0.680              1.711              1.536
 Vibration    14          0.682              1.706              1.518
 Vibration    15          0.688              1.686              1.455
 Vibration    16          0.704              1.639              1.320
 Vibration    17          0.709              1.625              1.283
 Vibration    18          0.719              1.598              1.217
 Vibration    19          0.728              1.574              1.163
 Vibration    20          0.739              1.542              1.096
 Vibration    21          0.765              1.472              0.966
 Vibration    22          0.780              1.435              0.905
 Vibration    23          0.792              1.404              0.857
 Vibration    24          0.817              1.342              0.770
 Vibration    25          0.832              1.304              0.722
 Vibration    26          0.847              1.270              0.681
 Vibration    27          0.849              1.266              0.676
 Vibration    28          0.863              1.232              0.638
 Vibration    29          0.907              1.137              0.541
 Vibration    30          0.939              1.069              0.481
 Vibration    31          0.942              1.063              0.476
 Vibration    32          0.946              1.055              0.469
 Vibration    33          0.960              1.029              0.447

 Normal termination of Gaussian 09 at Mon Apr  4 20:07:14 2016.
