 Gaussian 09, Revision B.01,
 Gaussian 09:  EM64L-G09RevB.01 12-Aug-2010

 ----------------------------------------------------------------------
 # opt freq=raman b3lyp/6-31+g(2df,p) scrf=(smd,solvent=water) geom=con
 nectivity
 ----------------------------------------------------------------------

 --------------
 Furfural Raman
 --------------
 Symbolic Z-matrix:
 Charge =  0 Multiplicity = 1

 SCF Done:  E(RB3LYP) =  -687.286844949     A.U. after   12 cycles
 SCF Done:  E(RB3LYP) =  -687.289515954     A.U. after   11 cycles
 SCF Done:  E(RB3LYP) =  -687.290694533     A.U. after   13 cycles
 SCF Done:  E(RB3LYP) =  -687.292100025     A.U. after   10 cycles
 SCF Done:  E(RB3LYP) =  -687.292874209     A.U. after   11 cycles
 SCF Done:  E(RB3LYP) =  -687.293930064     A.U. after   10 cycles
 SCF Done:  E(RB3LYP) =  -687.294229499     A.U. after    9 cycles
 SCF Done:  E(RB3LYP) =  -687.294438642     A.U. after    9 cycles
 SCF Done:  E(RB3LYP) =  -687.294656302     A.U. after    9 cycles
 SCF Done:  E(RB3LYP) =  -687.295242027     A.U. after   10 cycles
 SCF Done:  E(RB3LYP) =  -687.296377608     A.U. after    9 cycles
 SCF Done:  E(RB3LYP) =  -687.296408744     A.U. after    8 cycles
 SCF Done:  E(RB3LYP) =  -687.296439320     A.U. after    9 cycles
 SCF Done:  E(RB3LYP) =  -687.296452738     A.U. after    8 cycles
 SCF Done:  E(RB3LYP) =  -687.296449254     A.U. after    9 cycles
 SCF Done:  E(RB3LYP) =  -687.296462630     A.U. after    9 cycles
 SCF Done:  E(RB3LYP) =  -687.296463012     A.U. after    7 cycles
 SCF Done:  E(RB3LYP) =  -687.296463855     A.U. after    7 cycles
 SCF Done:  E(RB3LYP) =  -687.296464082     A.U. after    7 cycles
 Optimization completed.
    -- Stationary point found.
 Normal termination of Gaussian 09 at Sun Mar 22 05:54:24 2015.

 ----------------------------------------------------------------------
 #N Geom=AllCheck Guess=TCheck SCRF=Check GenChk RB3LYP/6-31+G(2df,p) F
 req
 ----------------------------------------------------------------------

 Furfural Raman
 --------------
 Redundant internal coordinates taken from checkpoint file:
 alpha-D-glucose.chk
 Charge =  0 Multiplicity = 1

                         Standard orientation:
 ---------------------------------------------------------------------
 Center     Atomic      Atomic             Coordinates (Angstroms)
 Number     Number       Type             X           Y           Z
 ---------------------------------------------------------------------
      1          8           0        2.162566    1.963010    0.047052
      2          8           0        2.400228   -0.750429   -0.462223
      3          8           0       -0.246844   -0.979033    2.020695
      4          8           0       -0.092564   -1.712235   -1.535328
      5          8           0        0.199448    1.186378   -0.800735
      6          8           0       -3.317296    0.472346    0.107836
      7          6           0        1.075267    1.125256    0.330642
      8          6           0        1.532289   -0.318055    0.584815
      9          6           0        0.328386   -1.258595    0.746647
     10          6           0       -0.688144   -1.071096   -0.394537
     11          6           0       -1.000340    0.401282   -0.703731
     12          6           0       -2.022010    1.061180    0.240666
     13          1           0        2.751922    1.476105   -0.551193
     14          1           0        1.852383   -0.980851   -1.229908
     15          1           0       -1.032154   -1.531174    2.130219
     16          1           0       -0.655884   -1.563308   -2.306424
     17          1           0       -3.652789    0.672741   -0.775607
     18          1           0        0.580169    1.537499    1.215119
     19          1           0        2.122512   -0.333588    1.504740
     20          1           0        0.690013   -2.293194    0.712281
     21          1           0       -1.620833   -1.581817   -0.126711
     22          1           0       -1.431159    0.440567   -1.711362
     23          1           0       -2.057789    2.131540    0.004969
     24          1           0       -1.743392    0.945353    1.288487
 ---------------------------------------------------------------------

 SCF Done:  E(RB3LYP) =  -687.296464082     A.U. after    1 cycles

 The electronic state is 1-A.
 Alpha  occ. eigenvalues --  -19.16601 -19.16363 -19.16303 -19.16184 -19.16117
 Alpha  occ. eigenvalues --  -19.15833 -10.28515 -10.24483 -10.24301 -10.24177
 Alpha  occ. eigenvalues --  -10.24176 -10.22989  -1.08361  -1.04601  -1.03457
 Alpha  occ. eigenvalues --   -1.03203  -1.02857  -1.01334  -0.78187  -0.76718
 Alpha  occ. eigenvalues --   -0.69777  -0.65449  -0.63973  -0.58596  -0.55306
 Alpha  occ. eigenvalues --   -0.53935  -0.51548  -0.50660  -0.50054  -0.48647
 Alpha  occ. eigenvalues --   -0.47489  -0.45825  -0.44304  -0.43620  -0.42153
 Alpha  occ. eigenvalues --   -0.40362  -0.38796  -0.37608  -0.37140  -0.36677
 Alpha  occ. eigenvalues --   -0.34967  -0.32969  -0.32399  -0.31094  -0.29482
 Alpha  occ. eigenvalues --   -0.29025  -0.28531  -0.25963
 Alpha virt. eigenvalues --    0.00625   0.00788   0.01821   0.02311   0.03921
 Alpha virt. eigenvalues --    0.04273   0.04845   0.05302   0.06212   0.08300
 Alpha virt. eigenvalues --    0.08652   0.09475   0.09651   0.10065   0.11162

 Mulliken atomic charges:
              1
     1  O   -0.494064
     2  O   -0.517631
     3  O   -0.504371
     4  O   -0.545342
     5  O   -0.170053
     6  O   -0.490995
     7  C    0.010100
     8  C   -0.025551
     9  C    0.060200
    10  C   -0.000612
    11  C   -0.041057
    12  C   -0.385052
    13  H    0.384596
    14  H    0.392264
    15  H    0.391656
    16  H    0.389077
    17  H    0.380140
    18  H    0.172333
    19  H    0.163990
    20  H    0.157166
    21  H    0.157035
    22  H    0.152837
    23  H    0.173279
    24  H    0.190054
 Sum of Mulliken atomic charges =   0.00000

 Dipole moment (field-independent basis, Debye):
    X=             -5.0034    Y=             -2.5363    Z=             -2.4248  Tot=              6.1111
 Quadrupole moment (field-independent basis, Debye-Ang):
   XX=            -77.1548   YY=            -77.6382   ZZ=            -66.5985
   XY=             -0.7659   XZ=              7.2916   YZ=             -1.1607

  Exact polarizability: 141.034   3.118 130.100  -0.539   3.067 132.596
 Approx polarizability: 135.272   3.353 125.332  -0.559   3.127 132.128

                     1                      2                      3
                     A                      A                      A
 Frequencies --    76.2843                98.9212               123.8721
 Red. masses --     5.3600                 5.5611                 4.0829
 Frc consts  --     0.0184                 0.0321                 0.0369
 IR Inten    --     3.9283                 4.6014                 2.8906
 Raman Activ --     0.1651                 0.0692                 0.2594

                     4                      5                      6
                     A                      A                      A
 Frequencies --   151.7846               188.5584               210.8062
 Red. masses --     4.8624                 3.3973                 4.0154
 Frc consts  --     0.0660                 0.0712                 0.1051
 IR Inten    --     1.6942                 4.2439                11.1658
 Raman Activ --     0.0448                 0.3231                 0.4382

                     7                      8                      9
                     A                      A                      A
 Frequencies --   240.5234               252.2252               280.5198
 Red. masses --     4.7999                 1.1300                 4.0770
 Frc consts  --     0.1636                 0.0424                 0.1890
 IR Inten    --    46.5459               238.2079                16.3096
 Raman Activ --     0.2761                 1.0819                 0.8397

                    10                     11                     12
                     A                      A                      A
 Frequencies --   291.5835               307.5794               332.3859
 Red. masses --     1.6708                 1.4702                 1.5134
 Frc consts  --     0.0837                 0.0819                 0.0985
 IR Inten    --    74.7634                76.8425               223.3752
 Raman Activ --     0.5119                 0.6380                 0.6329

                    13                     14                     15
                     A                      A                      A
 Frequencies --   374.9527               387.2999               425.8521
 Red. masses --     3.5240                 5.6957                 2.9479
 Frc consts  --     0.2919                 0.5034                 0.3150
 IR Inten    --    23.8539                 8.2196                46.6952
 Raman Activ --     6.5709                 1.5518                 2.9513

                    16                     17                     18
                     A                      A                      A
 Frequencies --   442.9243               470.6676               497.5786
 Red. masses --     1.4190                 1.6222                 2.8778
 Frc consts  --     0.1640                 0.2117                 0.4198
 IR Inten    --    95.9286               181.6776               149.6734
 Raman Activ --     0.5897                 2.4527                 1.9539

                    19                     20                     21
                     A                      A                      A
 Frequencies --   526.3726               552.7037               609.1684
 Red. masses --     3.8640                 5.8835                 6.2496
 Frc consts  --     0.6308                 1.0589                 1.3664
 IR Inten    --    34.6483                10.5352                43.0349
 Raman Activ --     6.8933                11.2797                 2.8893

                    22                     23                     24
                     A                      A                      A
 Frequencies --   723.0995               791.5315               830.7643
 Red. masses --     4.6187                 3.3976                 2.6078
 Frc consts  --     1.4229                 1.2542                 1.0604
 IR Inten    --    33.4582                37.9158                27.9185
 Raman Activ --    10.1847                23.9099                 1.7730

                    25                     26                     27
                     A                      A                      A
 Frequencies --   876.1848               909.3121               988.3672
 Red. masses --     4.9948                 2.6681                 2.6600
 Frc consts  --     2.2592                 1.2998                 1.5310
 IR Inten    --    24.7511                47.0095               220.0547
 Raman Activ --     6.3000                 1.3806                 9.8108

                    28                     29                     30
                     A                      A                      A
 Frequencies --  1021.3350              1031.1202              1041.8591
 Red. masses --     3.6344                 6.5370                 3.2754
 Frc consts  --     2.2337                 4.0949                 2.0947
 IR Inten    --   125.7194               329.0138               210.3466
 Raman Activ --    11.2886                 8.9249                 3.4844

                    31                     32                     33
                     A                      A                      A
 Frequencies --  1056.0495              1068.6180              1082.3843
 Red. masses --     3.4903                 2.7716                 2.6560
 Frc consts  --     2.2934                 1.8648                 1.8333
 IR Inten    --   174.7058                82.7765                17.2099
 Raman Activ --     2.4080                 9.3044                18.7492

                    34                     35                     36
                     A                      A                      A
 Frequencies --  1096.4764              1106.0878              1188.1181
 Red. masses --     2.9411                 2.4567                 1.2662
 Frc consts  --     2.0834                 1.7708                 1.0531
 IR Inten    --    28.3199                54.9573               185.9010
 Raman Activ --    16.9479                15.9383                 4.1551

                    37                     38                     39
                     A                      A                      A
 Frequencies --  1199.3401              1202.7768              1215.4548
 Red. masses --     1.2889                 1.4487                 1.1071
 Frc consts  --     1.0923                 1.2348                 0.9637
 IR Inten    --    97.3899               119.5592                 5.1037
 Raman Activ --     7.8453                 7.5734                10.8320

                    40                     41                     42
                     A                      A                      A
 Frequencies --  1268.7574              1322.0389              1327.8634
 Red. masses --     1.3694                 1.5785                 1.5761
 Frc consts  --     1.2988                 1.6255                 1.6373
 IR Inten    --     5.8591                53.1914                31.2037
 Raman Activ --     9.6253                 6.4009                 8.9703

                    43                     44                     45
                     A                      A                      A
 Frequencies --  1346.2965              1351.7961              1361.2623
 Red. masses --     1.2532                 1.3173                 1.4623
 Frc consts  --     1.3383                 1.4183                 1.5965
 IR Inten    --     2.0807                11.4773                 5.8766
 Raman Activ --    12.9280                20.2614                 9.2842

                    46                     47                     48
                     A                      A                      A
 Frequencies --  1377.7318              1381.8448              1394.2012
 Red. masses --     1.2408                 1.3634                 1.2715
 Frc consts  --     1.3877                 1.5339                 1.4562
 IR Inten    --    15.3788                18.9693                45.1594
 Raman Activ --     7.0610                 5.3916                 5.5035

                    49                     50                     51
                     A                      A                      A
 Frequencies --  1410.2205              1419.5037              1436.9705
 Red. masses --     1.2964                 1.2709                 1.4704
 Frc consts  --     1.5190                 1.5088                 1.7889
 IR Inten    --    45.9749                21.8343                62.0134
 Raman Activ --     9.2684                 7.2451                 3.1410

                    52                     53                     54
                     A                      A                      A
 Frequencies --  1445.0325              1454.2051              1486.1708
 Red. masses --     1.4478                 1.4152                 1.0892
 Frc consts  --     1.7812                 1.7633                 1.4175
 IR Inten    --     1.3227               111.1406                 4.4540
 Raman Activ --     5.0312                 8.1913                10.2255

                    55                     56                     57
                     A                      A                      A
 Frequencies --  3036.4137              3039.6602              3042.5212
 Red. masses --     1.0841                 1.0695                 1.0836
 Frc consts  --     5.8888                 5.8224                 5.9097
 IR Inten    --    73.7964                63.2011                54.7106
 Raman Activ --   242.8156               313.9952               205.7358

                    58                     59                     60
                     A                      A                      A
 Frequencies --  3048.5055              3080.7167              3092.3976
 Red. masses --     1.0852                 1.0857                 1.0867
 Frc consts  --     5.9419                 6.0710                 6.1229
 IR Inten    --    40.2798                25.1208                55.1905
 Raman Activ --   637.8391               162.5155               465.3800

                    61                     62                     63
                     A                      A                      A
 Frequencies --  3138.6340              3686.4008              3715.9546
 Red. masses --     1.0976                 1.0670                 1.0654
 Frc consts  --     6.3706                 8.5430                 8.6679
 IR Inten    --    23.7002               270.5450               131.6040
 Raman Activ --   143.8728               169.0424               128.5162

                    64                     65                     66
                     A                      A                      A
 Frequencies --  3778.7561              3783.7665              3785.6272
 Red. masses --     1.0672                 1.0669                 1.0668
 Frc consts  --     8.9781                 8.9998                 9.0072
 IR Inten    --    89.4948                93.9028               102.3574
 Raman Activ --   189.1039               149.0110               207.2311

 - Thermochemistry -
 -------------------
 Temperature   298.150 Kelvin.  Pressure   1.00000 Atm.
 Atom     1 has atomic number  8 and mass  15.99491

 Molecular mass:   180.06339 amu.
 Principal axes and moments of inertia in atomic units:
                           1         2         3
     Eigenvalues --  1452.561242346.223462664.74495
           X            0.99988  -0.01227   0.00908
           Y            0.01221   0.99990   0.00662
           Z           -0.00916  -0.00650   0.99994
 This molecule is an asymmetric top.
 Rotational symmetry number  1.
 Warning -- assumption of classical behavior for rotation
           may cause significant error
 Rotational temperatures (Kelvin)      0.05963     0.03692     0.03250
 Rotational constants (GHZ):           1.24245     0.76921     0.67727
 Zero-point vibrational energy     516097.1 (Joules/Mol)
                                  123.35016 (Kcal/Mol)
 Warning -- explicit consideration of  21 degrees of freedom as
           vibrations may cause significant error
 Vibrational temperatures:    109.76   142.33   178.22   218.38   271.29
          (Kelvin)            303.30   346.06   362.90   403.60   419.52
                              442.54   478.23   539.47   557.24   612.71
                              637.27   677.18   715.90   757.33   795.22
                              876.46  1040.38  1138.84  1195.28  1260.63
                             1308.30  1422.04  1469.47  1483.55  1499.00
                             1519.42  1537.50  1557.31  1577.58  1591.41
                             1709.43  1725.58  1730.53  1748.77  1825.46
                             1902.12  1910.50  1937.02  1944.93  1958.55
                             1982.25  1988.16  2005.94  2028.99  2042.35
                             2067.48  2079.08  2092.27  2138.27  4368.72
                             4373.39  4377.50  4386.11  4432.46  4449.26
                             4515.79  5303.90  5346.42  5436.78  5443.99
                             5446.67

 Zero-point correction=                           0.196571 (Hartree/Particle)
 Thermal correction to Energy=                    0.209082
 Thermal correction to Enthalpy=                  0.210026
 Thermal correction to Gibbs Free Energy=         0.158973
 Sum of electronic and zero-point Energies=           -687.099893
 Sum of electronic and thermal Energies=              -687.087382
 Sum of electronic and thermal Enthalpies=            -687.086438
 Sum of electronic and thermal Free Energies=         -687.137491

                     E (Thermal)             CV                S
                      KCal/Mol        Cal/Mol-Kelvin    Cal/Mol-Kelvin
 Total                  131.201             47.801            107.451
 Electronic               0.000              0.000              0.000
 Translational            0.889              2.981             41.471
 Rotational               0.889              2.981             30.586
 Vibrational            129.424             41.839             35.395
 Vibration     1          0.599              1.965              3.984
 Vibration     2          0.604              1.950              3.475
 Vibration     3          0.610              1.929              3.039
 Vibration     4          0.619              1.901              2.650
 Vibration     5          0.633              1.856              2.242
 Vibration     6          0.643              1.824              2.037
 Vibration     7          0.658              1.778              1.799
 Vibration     8          0.664              1.759              1.715
 Vibration     9          0.680              1.710              1.531
 Vibration    10          0.687              1.689              1.465
 Vibration    11          0.697              1.659              1.375
 Vibration    12          0.714              1.611              1.248
 Vibration    13          0.746              1.523              1.059
 Vibration    14          0.756              1.497              1.011
 Vibration    15          0.788              1.414              0.872
 Vibration    16          0.803              1.377              0.817
 Vibration    17          0.828              1.315              0.736
 Vibration    18          0.853              1.255              0.664
 Vibration    19          0.881              1.192              0.595
 Vibration    20          0.908              1.134              0.539
 Vibration    21          0.968              1.012              0.434

 Normal termination of Gaussian 09 at Sun Mar 22 13:07:47 2015.
