 Gaussian 09, Revision B.01,
 Gaussian 09:  EM64L-G09RevB.01 12-Aug-2010

 --------------------------------------------------
 # freq=raman b3lyp/6-31+g(2df,p) geom=connectivity
 --------------------------------------------------

 ------------
 400 5000.com
 ------------
 Symbolic Z-matrix:
 Charge =  0 Multiplicity = 1

                         Standard orientation:
 ---------------------------------------------------------------------
 Center     Atomic      Atomic             Coordinates (Angstroms)
 Number     Number       Type             X           Y           Z
 ---------------------------------------------------------------------
      1          8           0        5.066997   -0.422763   -0.288019
      2          6           0        3.805325   -0.176299    0.350485
      3          6           0        3.265959    1.136555   -0.192838
      4          8           0        4.248387    2.180807   -0.139681
      5          1           0        5.176184    1.809687   -0.106090
      6          6           0        1.862664    1.509371    0.257190
      7          8           0        1.463228    2.656221   -0.505773
      8          1           0        0.493385    2.821912   -0.329182
      9          6           0        2.917177   -2.601403    0.004914
     10          8           0        3.945233   -3.308698   -0.704677
     11          1           0        3.711873   -4.280919   -0.712728
     12          6           0        2.668376   -1.102575   -0.047802
     13          8           0        1.412863   -0.807600    0.579444
     14          6           0        0.923189    0.364777   -0.088271
     15          8           0       -0.292489    0.705957    0.593759
     16          6           0       -1.513473    0.278076   -0.027652
     17          6           0       -2.049929   -1.010033    0.576864
     18          8           0       -0.983752   -1.970137    0.629594
     19          1           0       -0.174415   -1.393543    0.740505
     20          6           0       -3.326342   -1.501489   -0.085189
     21          8           0       -3.882116   -2.789890    0.213511
     22          1           0       -4.801436   -3.040021   -0.092764
     23          6           0       -2.229164    2.610998   -0.198647
     24          8           0       -1.114883    3.317649    0.366453
     25          1           0       -1.132063    4.313228    0.277047
     26          6           0       -2.655264    1.232825    0.280969
     27          8           0       -3.860473    0.861771   -0.403782
     28          6           0       -4.396818   -0.422865   -0.055138
     29          8           0       -5.518734   -0.600314   -0.932268
     30          1           0       -6.324191   -0.660537   -0.413410
     31          1           0       -4.770226   -0.363204    0.945815
     32          1           0       -3.058942   -1.578113   -1.118400
     33          1           0       -2.305693   -0.785905    1.591384
     34          1           0       -1.385081    0.173594   -1.084771
     35          1           0       -2.831600    1.256166    1.336081
     36          1           0       -3.081476    3.248675   -0.089873
     37          1           0       -2.033931    2.522134   -1.246925
     38          1           0        5.751302   -0.512186    0.379312
     39          1           0        1.995074   -3.059639   -0.286024
     40          1           0        3.063468   -2.835698    1.038648
     41          1           0        2.509699   -0.893550   -1.085120
     42          1           0        3.911869   -0.133445    1.414305
     43          1           0        3.150560    0.950057   -1.240121
     44          1           0        1.840168    1.720482    1.305916
     45          1           0        0.791158    0.229171   -1.141399
 ---------------------------------------------------------------------

 SCF Done:  E(RB3LYP) =  -1297.96501497     A.U. after   13 cycles

 The electronic state is 1-A.
 Alpha  occ. eigenvalues --  -19.19769 -19.19356 -19.18476 -19.18425 -19.18376
 Alpha  occ. eigenvalues --  -19.17772 -19.16025 -19.15878 -19.14258 -19.13752
 Alpha  occ. eigenvalues --  -19.13498 -10.31267 -10.31027 -10.26428 -10.25968
 Alpha  occ. eigenvalues --  -10.25923 -10.25580 -10.25502 -10.25196 -10.24534
 Alpha  occ. eigenvalues --  -10.24425 -10.23676 -10.23597  -1.11410  -1.09222
 Alpha  occ. eigenvalues --   -1.06044  -1.05291  -1.04496  -1.03455  -1.02410
 Alpha  occ. eigenvalues --   -1.02165  -1.01645  -1.00541  -0.99794  -0.83037
 Alpha  occ. eigenvalues --   -0.81333  -0.79790  -0.78243  -0.72119  -0.70418
 Alpha  occ. eigenvalues --   -0.67599  -0.65169  -0.63323  -0.62408  -0.62207
 Alpha  occ. eigenvalues --   -0.61026  -0.56680  -0.56066  -0.55609  -0.55111
 Alpha  occ. eigenvalues --   -0.54209  -0.54013  -0.52724  -0.51580  -0.51233
 Alpha  occ. eigenvalues --   -0.50679  -0.50500  -0.49384  -0.48824  -0.47002
 Alpha  occ. eigenvalues --   -0.46416  -0.45452  -0.44186  -0.44051  -0.43778
 Alpha  occ. eigenvalues --   -0.42367  -0.42203  -0.41092  -0.40977  -0.39141
 Alpha  occ. eigenvalues --   -0.38719  -0.37915  -0.37383  -0.36475  -0.36076
 Alpha  occ. eigenvalues --   -0.35233  -0.34543  -0.34403  -0.34112  -0.33493
 Alpha  occ. eigenvalues --   -0.33173  -0.31747  -0.30952  -0.30416  -0.30123
 Alpha  occ. eigenvalues --   -0.29456  -0.28137  -0.27743  -0.27434  -0.26634
 Alpha  occ. eigenvalues --   -0.26374
 Alpha virt. eigenvalues --   -0.02210  -0.02072  -0.01940  -0.00533  -0.00050
 Alpha virt. eigenvalues --    0.00631   0.01934   0.02093   0.03036   0.03379
 Alpha virt. eigenvalues --    0.03940   0.04227   0.04764   0.05090   0.05584

 Mulliken atomic charges:
              1
     1  O   -0.431688
     2  C   -0.259374
     3  C   -0.006480
     4  O   -0.499869
     5  H    0.350557
     6  C    0.086327
     7  O   -0.475279
     8  H    0.419889
     9  C   -0.370370
    10  O   -0.439252
    11  H    0.346312
    12  C    0.297286
    13  O   -0.062316
    14  C   -0.298923
    15  O   -0.038331
    16  C   -0.233210
    17  C    0.284815
    18  O   -0.499463
    19  H    0.432209
    20  C   -0.037769
    21  O   -0.486137
    22  H    0.359788
    23  C   -0.416221
    24  O   -0.513146
    25  H    0.382695
    26  C    0.096452
    27  O   -0.035999
    28  C   -0.072460
    29  O   -0.452973
    30  H    0.348983
    31  H    0.121219
    32  H    0.123657
    33  H    0.111562
    34  H    0.129150
    35  H    0.135941
    36  H    0.145707
    37  H    0.159011
    38  H    0.349384
    39  H    0.157045
    40  H    0.142064
    41  H    0.109874
    42  H    0.129481
    43  H    0.113496
    44  H    0.138229
    45  H    0.158123
 Sum of Mulliken atomic charges =   0.00000

 Dipole moment (field-independent basis, Debye):
    X=             -2.8839    Y=              0.1775    Z=              2.0602  Tot=              3.5486
 Quadrupole moment (field-independent basis, Debye-Ang):
   XX=           -114.1074   YY=           -137.4201   ZZ=           -141.7336
   XY=            -13.2087   XZ=              5.0322   YZ=              3.9807

  Exact polarizability: 236.956   3.187 196.734   1.411  -0.208 143.873
 Approx polarizability: 279.371   3.441 256.695   0.857   0.040 239.396

 ******    7 imaginary frequencies (negative Signs) ******

                     1                      2                      3
                     A                      A                      A
 Frequencies --  -345.6368              -286.9517              -162.8844
 Red. masses --     1.6432                 1.7572                 1.2788
 Frc consts  --     0.1157                 0.0853                 0.0200
 IR Inten    --     2.2700                 5.3417                81.1761
 Raman Activ --     0.1401                 0.0544                 0.7647

                     4                      5                      6
                     A                      A                      A
 Frequencies --  -156.4342               -89.7170               -50.2495
 Red. masses --     1.2605                 7.4469                 7.6408
 Frc consts  --     0.0182                 0.0353                 0.0114
 IR Inten    --   116.7489                 2.7720                 1.6360
 Raman Activ --     0.5543                 0.0451                 0.0189

                     7                      8                      9
                     A                      A                      A
 Frequencies --   -24.0938                46.6649                73.1123
 Red. masses --     6.3974                 6.3762                 6.2413
 Frc consts  --     0.0022                 0.0082                 0.0197
 IR Inten    --     0.0673                 1.5100                 2.4876
 Raman Activ --     0.0478                 0.0696                 0.1536

                    10                     11                     12
                     A                      A                      A
 Frequencies --    94.4616               100.1199               114.3193
 Red. masses --     6.6993                 6.1918                 6.0500
 Frc consts  --     0.0352                 0.0366                 0.0466
 IR Inten    --     1.5468                 4.3614                 4.5901
 Raman Activ --     0.1659                 0.1416                 0.1325

                    13                     14                     15
                     A                      A                      A
 Frequencies --   156.1746               178.8907               186.0724
 Red. masses --     6.9043                 5.7650                 6.8557
 Frc consts  --     0.0992                 0.1087                 0.1399
 IR Inten    --     5.4731                 1.3920                 1.8688
 Raman Activ --     0.2433                 0.4440                 0.6580

                    16                     17                     18
                     A                      A                      A
 Frequencies --   205.3852               236.5559               262.0843
 Red. masses --     6.7255                 5.6013                 3.8479
 Frc consts  --     0.1672                 0.1847                 0.1557
 IR Inten    --     0.6561                 4.9036                10.5606
 Raman Activ --     2.5077                 0.8563                 0.2133

                    19                     20                     21
                     A                      A                      A
 Frequencies --   289.9524               292.4679               301.0084
 Red. masses --     4.7588                 4.8932                 4.8813
 Frc consts  --     0.2357                 0.2466                 0.2606
 IR Inten    --     6.3638                 5.2221                 2.1514
 Raman Activ --     0.6108                 1.2671                 0.2306

                    22                     23                     24
                     A                      A                      A
 Frequencies --   314.8305               318.8907               327.2313
 Red. masses --     5.3248                 4.8912                 5.8091
 Frc consts  --     0.3110                 0.2931                 0.3665
 IR Inten    --     4.5821                 9.2209                 8.6101
 Raman Activ --     0.7279                 2.5640                 6.1433

                    25                     26                     27
                     A                      A                      A
 Frequencies --   338.7570               354.4656               384.6718
 Red. masses --     5.3469                 5.4583                 6.5651
 Frc consts  --     0.3615                 0.4041                 0.5724
 IR Inten    --     7.0353                 4.0869                 3.4441
 Raman Activ --     1.1776                 0.6072                 3.0970

                    28                     29                     30
                     A                      A                      A
 Frequencies --   398.4764               421.3705               435.8179
 Red. masses --     6.2374                 5.0387                 6.2359
 Frc consts  --     0.5835                 0.5271                 0.6978
 IR Inten    --    13.2322                16.2432                 5.9342
 Raman Activ --     1.3118                 3.4702                 1.1613

                    31                     32                     33
                     A                      A                      A
 Frequencies --   443.5254               478.5706               495.0388
 Red. masses --     3.7627                 4.3209                 4.6131
 Frc consts  --     0.4361                 0.5831                 0.6661
 IR Inten    --    11.5949                12.2378                 4.7792
 Raman Activ --     4.2872                 1.2378                 2.3683

                    34                     35                     36
                     A                      A                      A
 Frequencies --   516.3521               525.7816               555.2760
 Red. masses --     4.5155                 3.2885                 1.4799
 Frc consts  --     0.7093                 0.5356                 0.2689
 IR Inten    --     1.8845                 7.1966                57.8634
 Raman Activ --     3.5755                 4.8325                 1.5414

                    37                     38                     39
                     A                      A                      A
 Frequencies --   565.6147               591.5519               600.9833
 Red. masses --     3.4854                 4.0270                 2.5866
 Frc consts  --     0.6570                 0.8303                 0.5504
 IR Inten    --     9.7617                 8.7326                27.4506
 Raman Activ --     1.0960                 1.0473                 1.8519

                    40                     41                     42
                     A                      A                      A
 Frequencies --   610.2942               631.5937               674.6780
 Red. masses --     3.7640                 3.5538                 1.4387
 Frc consts  --     0.8260                 0.8353                 0.3858
 IR Inten    --    41.6068                14.7681                84.0392
 Raman Activ --     0.8785                 1.2843                 1.5658

                    43                     44                     45
                     A                      A                      A
 Frequencies --   681.7290               685.2974               688.1501
 Red. masses --     2.0104                 1.0902                 1.1541
 Frc consts  --     0.5505                 0.3016                 0.3220
 IR Inten    --    80.8222                21.3790               139.1534
 Raman Activ --     1.8393                 1.8827                 1.6817

                    46                     47                     48
                     A                      A                      A
 Frequencies --   807.5440               843.8050               854.2734
 Red. masses --     1.1227                 1.8274                 1.3733
 Frc consts  --     0.4314                 0.7666                 0.5905
 IR Inten    --    68.3693                 8.0696                31.7664
 Raman Activ --     1.8828                 1.2279                 0.2653

                    49                     50                     51
                     A                      A                      A
 Frequencies --   887.0592               924.1688               951.9689
 Red. masses --     1.2773                 5.2195                 6.2217
 Frc consts  --     0.5922                 2.6265                 3.3221
 IR Inten    --    47.3453                87.0225               104.6101
 Raman Activ --     0.5119                 3.5459                 0.7836

                    52                     53                     54
                     A                      A                      A
 Frequencies --   965.8542               974.3339               992.0107
 Red. masses --     4.5644                 4.7956                 5.0674
 Frc consts  --     2.5088                 2.6823                 2.9381
 IR Inten    --    20.2624               119.8972               284.3292
 Raman Activ --     1.7237                 1.2117                 1.5295

                    55                     56                     57
                     A                      A                      A
 Frequencies --  1000.9626              1007.6804              1021.1723
 Red. masses --     6.3598                 6.8102                 7.1287
 Frc consts  --     3.7543                 4.0743                 4.3799
 IR Inten    --    59.4027                86.6612               289.6878
 Raman Activ --     3.5667                 0.3482                 1.6638

                    58                     59                     60
                     A                      A                      A
 Frequencies --  1024.6476              1046.3944              1055.6476
 Red. masses --     5.4311                 4.8351                 4.5015
 Frc consts  --     3.3596                 3.1192                 2.9556
 IR Inten    --   247.8147               190.6291                13.1590
 Raman Activ --     2.3967                 4.2321                 2.5426

                    61                     62                     63
                     A                      A                      A
 Frequencies --  1062.5248              1069.2763              1074.4302
 Red. masses --     5.2373                 3.6419                 3.3669
 Frc consts  --     3.4837                 2.4533                 2.2900
 IR Inten    --    11.0505                16.3873                85.2968
 Raman Activ --     2.1912                 5.4183                14.5700

                    64                     65                     66
                     A                      A                      A
 Frequencies --  1092.1835              1098.7612              1105.6471
 Red. masses --     2.3039                 1.7352                 2.5445
 Frc consts  --     1.6192                 1.2342                 1.8327
 IR Inten    --    38.1977                 8.5299                13.4467
 Raman Activ --     1.1699                 4.9178                 5.3745

                    67                     68                     69
                     A                      A                      A
 Frequencies --  1119.7286              1123.8939              1126.9648
 Red. masses --     2.5740                 2.4951                 2.9047
 Frc consts  --     1.9015                 1.8569                 2.1736
 IR Inten    --    54.6607               116.6637                39.0327
 Raman Activ --    13.2314                 4.6781                10.5626

                    70                     71                     72
                     A                      A                      A
 Frequencies --  1146.2274              1152.9603              1159.3321
 Red. masses --     2.4092                 2.6098                 2.7707
 Frc consts  --     1.8649                 2.0440                 2.1941
 IR Inten    --    54.8099                15.0312                 9.5166
 Raman Activ --     6.0235                 3.6824                 8.8639

                    73                     74                     75
                     A                      A                      A
 Frequencies --  1163.8696              1169.2985              1201.8065
 Red. masses --     1.9244                 2.0000                 1.5329
 Frc consts  --     1.5359                 1.6111                 1.3045
 IR Inten    --     6.1016                 9.9093                 1.3054
 Raman Activ --     2.4857                 1.5571                 1.1546

                    76                     77                     78
                     A                      A                      A
 Frequencies --  1208.2780              1214.7138              1216.5338
 Red. masses --     1.5156                 1.7504                 1.4857
 Frc consts  --     1.3037                 1.5217                 1.2955
 IR Inten    --     5.1148                18.9386                11.9441
 Raman Activ --     1.4027                 1.6408                 1.6289

                    79                     80                     81
                     A                      A                      A
 Frequencies --  1250.5743              1253.2500              1259.6115
 Red. masses --     1.2006                 1.2484                 1.2045
 Frc consts  --     1.1063                 1.1553                 1.1260
 IR Inten    --     7.8728                15.6160                30.3025
 Raman Activ --     1.2291                 1.6812                 7.6288

                    82                     83                     84
                     A                      A                      A
 Frequencies --  1264.7000              1268.6194              1283.6762
 Red. masses --     1.2991                 1.3602                 1.3397
 Frc consts  --     1.2242                 1.2898                 1.3007
 IR Inten    --    26.3003                41.4730                 5.5728
 Raman Activ --     5.0548                 0.6989                 3.4092

                    85                     86                     87
                     A                      A                      A
 Frequencies --  1297.3961              1299.8949              1303.6245
 Red. masses --     1.2040                 1.3234                 1.4293
 Frc consts  --     1.1940                 1.3175                 1.4311
 IR Inten    --    49.9527                 8.2658                 7.5346
 Raman Activ --     6.8931                 1.5787                 5.2336

                    88                     89                     90
                     A                      A                      A
 Frequencies --  1313.3500              1321.5679              1331.6373
 Red. masses --     1.1932                 1.4489                 1.2208
 Frc consts  --     1.2126                 1.4910                 1.2755
 IR Inten    --     9.6972                22.4160                46.5653
 Raman Activ --     4.5464                 0.7264                 2.9094

                    91                     92                     93
                     A                      A                      A
 Frequencies --  1343.1257              1349.8360              1356.1095
 Red. masses --     1.1525                 1.3821                 1.2434
 Frc consts  --     1.2249                 1.4838                 1.3473
 IR Inten    --    16.5953                12.1773                 8.7346
 Raman Activ --    11.7587                 8.4612                 2.9756

                    94                     95                     96
                     A                      A                      A
 Frequencies --  1373.2467              1383.5337              1389.2992
 Red. masses --     1.3597                 1.5330                 1.1614
 Frc consts  --     1.5107                 1.7289                 1.3208
 IR Inten    --     6.9967                 5.6555                 1.3256
 Raman Activ --     2.1952                 2.8125                 2.5685

                    97                     98                     99
                     A                      A                      A
 Frequencies --  1395.2718              1396.0087              1398.9940
 Red. masses --     1.4081                 1.4255                 1.2179
 Frc consts  --     1.6152                 1.6368                 1.4044
 IR Inten    --    23.1957                40.7518                16.8866
 Raman Activ --     6.9128                 2.6741                 2.6310

                   100                    101                    102
                     A                      A                      A
 Frequencies --  1418.8544              1426.4013              1433.4839
 Red. masses --     1.5323                 1.3780                 1.1160
 Frc consts  --     1.8174                 1.6519                 1.3512
 IR Inten    --    16.2398                11.4731                 2.7269
 Raman Activ --     2.9871                 0.8785                 1.8681

                   103                    104                    105
                     A                      A                      A
 Frequencies --  1459.5599              1469.0013              1470.0584
 Red. masses --     1.1331                 1.0844                 1.3022
 Frc consts  --     1.4222                 1.3787                 1.6581
 IR Inten    --    10.7344                 4.1837                11.7804
 Raman Activ --     4.7288                 4.1546                 0.3762

                   106                    107                    108
                     A                      A                      A
 Frequencies --  1494.5542              1504.7418              3239.3181
 Red. masses --     1.2638                 1.2504                 1.0781
 Frc consts  --     1.6632                 1.6681                 6.6651
 IR Inten    --    38.2124                92.6897                 6.9030
 Raman Activ --     0.5895                 4.4603                16.4107

                   109                    110                    111
                     A                      A                      A
 Frequencies --  3245.5671              3249.6965              3252.5521
 Red. masses --     1.0777                 1.0639                 1.0617
 Frc consts  --     6.6885                 6.6198                 6.6175
 IR Inten    --     8.0667                32.9490               198.8275
 Raman Activ --   116.9841                93.8703                69.5315

                   112                    113                    114
                     A                      A                      A
 Frequencies --  3256.0600              3260.9103              3268.6860
 Red. masses --     1.0803                 1.0784                 1.0680
 Frc consts  --     6.7481                 6.7561                 6.7233
 IR Inten    --    19.7503                21.2440               358.6727
 Raman Activ --    32.5831               115.4590               286.7773

                   115                    116                    117
                     A                      A                      A
 Frequencies --  3273.8011              3278.6076              3288.6499
 Red. masses --     1.0859                 1.0830                 1.0862
 Frc consts  --     6.8573                 6.8591                 6.9214
 IR Inten    --    59.7563                30.3480                 6.4305
 Raman Activ --    13.0326               112.4990                11.7821

                   118                    119                    120
                     A                      A                      A
 Frequencies --  3291.9793              3293.7432              3298.8494
 Red. masses --     1.0878                 1.0848                 1.1011
 Frc consts  --     6.9456                 6.9337                 7.0601
 IR Inten    --    52.3087                39.7301                50.2896
 Raman Activ --    18.0625                67.5633                42.5548

                   121                    122                    123
                     A                      A                      A
 Frequencies --  3302.9994              3308.7126              3311.1457
 Red. masses --     1.0793                 1.0961                 1.0814
 Frc consts  --     6.9378                 7.0701                 6.9853
 IR Inten    --   368.5267               182.0314               353.0484
 Raman Activ --    20.5455                85.6191                72.1357

                   124                    125                    126
                     A                      A                      A
 Frequencies --  3350.2275              3355.1901              3359.3655
 Red. masses --     1.0682                 1.0656                 1.0678
 Frc consts  --     7.0641                 7.0680                 7.0999
 IR Inten    --    71.9591                40.4894                57.8562
 Raman Activ --   167.3549               104.6085               151.4537

                   127                    128                    129
                     A                      A                      A
 Frequencies --  3363.1194              3874.8499              3877.3383
 Red. masses --     1.0685                 1.0677                 1.0676
 Frc consts  --     7.1206                 9.4451                 9.4565
 IR Inten    --    83.6842                85.7477                84.3137
 Raman Activ --   157.3037                99.2174               118.0612

 - Thermochemistry -
 -------------------
 Temperature   298.150 Kelvin.  Pressure   1.00000 Atm.
 Atom     1 has atomic number  8 and mass  15.99491

 Molecular mass:   342.11621 amu.
 Principal axes and moments of inertia in atomic units:
                           1         2         3
     Eigenvalues --  4398.99941********************
           X            0.99998  -0.00694   0.00007
           Y            0.00694   0.99998   0.00018
           Z           -0.00007  -0.00018   1.00000
 This molecule is an asymmetric top.
 Rotational symmetry number  1.
 Warning -- assumption of classical behavior for rotation
           may cause significant error
 Rotational temperatures (Kelvin)      0.01969     0.00698     0.00533
 Rotational constants (GHZ):           0.41026     0.14545     0.11109
    7 imaginary frequencies ignored.
 Zero-point vibrational energy     972274.0 (Joules/Mol)
                                  232.37907 (Kcal/Mol)
 Warning -- explicit consideration of  33 degrees of freedom as
           vibrations may cause significant error
 Vibrational temperatures:     67.14   105.19   135.91   144.05   164.48
          (Kelvin)            224.70   257.38   267.72   295.50   340.35
                              377.08   417.18   420.80   433.08   452.97
                              458.81   470.81   487.40   510.00   553.46
                              573.32   606.26   627.04   638.13   688.56
                              712.25   742.91   756.48   798.92   813.79
                              851.11   864.68   878.08   908.72   970.71
                              980.85   985.99   990.09  1161.87  1214.05
                             1229.11  1276.28  1329.67  1369.67  1389.65
                             1401.85  1427.28  1440.16  1449.83  1469.24
                             1474.24  1505.53  1518.84  1528.73  1538.45
                             1545.86  1571.41  1580.87  1590.78  1611.04
                             1617.03  1621.45  1649.16  1658.85  1668.02
                             1674.55  1682.36  1729.13  1738.44  1747.70
                             1750.32  1799.30  1803.14  1812.30  1819.62
                             1825.26  1846.92  1866.66  1870.26  1875.62
                             1889.62  1901.44  1915.93  1932.46  1942.11
                             1951.14  1975.79  1990.59  1998.89  2007.48
                             2008.54  2012.84  2041.41  2052.27  2062.46
                             2099.98  2113.56  2115.08  2150.33  2164.99
                             4660.65  4669.64  4675.58  4679.69  4684.74
                             4691.72  4702.90  4710.26  4717.18  4731.63
                             4736.42  4738.96  4746.30  4752.27  4760.49
                             4763.99  4820.22  4827.36  4833.37  4838.77
                             5575.04  5578.62

 Zero-point correction=                           0.370320 (Hartree/Particle)
 Thermal correction to Energy=                    0.388661
 Thermal correction to Enthalpy=                  0.389605
 Thermal correction to Gibbs Free Energy=         0.325109
 Sum of electronic and zero-point Energies=          -1297.594695
 Sum of electronic and thermal Energies=             -1297.576354
 Sum of electronic and thermal Enthalpies=           -1297.575410
 Sum of electronic and thermal Free Energies=        -1297.639906

                     E (Thermal)             CV                S
                      KCal/Mol        Cal/Mol-Kelvin    Cal/Mol-Kelvin
 Total                  243.889             76.333            135.744
 Electronic               0.000              0.000              0.000
 Translational            0.889              2.981             43.384
 Rotational               0.889              2.981             35.138
 Vibrational            242.111             70.372             57.222
 Vibration     1          0.595              1.979              4.954
 Vibration     2          0.599              1.967              4.068
 Vibration     3          0.603              1.953              3.565
 Vibration     4          0.604              1.949              3.452
 Vibration     5          0.607              1.938              3.194
 Vibration     6          0.620              1.896              2.596
 Vibration     7          0.629              1.868              2.340
 Vibration     8          0.632              1.859              2.267
 Vibration     9          0.640              1.832              2.084
 Vibration    10          0.655              1.785              1.829
 Vibration    11          0.669              1.742              1.648
 Vibration    12          0.686              1.692              1.474
 Vibration    13          0.688              1.688              1.460
 Vibration    14          0.693              1.672              1.411
 Vibration    15          0.702              1.645              1.337
 Vibration    16          0.705              1.637              1.316
 Vibration    17          0.711              1.621              1.274
 Vibration    18          0.719              1.598              1.218
 Vibration    19          0.730              1.566              1.146
 Vibration    20          0.754              1.503              1.021
 Vibration    21          0.765              1.473              0.968
 Vibration    22          0.784              1.424              0.887
 Vibration    23          0.796              1.392              0.840
 Vibration    24          0.803              1.375              0.816
 Vibration    25          0.835              1.298              0.714
 Vibration    26          0.851              1.261              0.671
 Vibration    27          0.871              1.214              0.618
 Vibration    28          0.881              1.193              0.597
 Vibration    29          0.911              1.128              0.533
 Vibration    30          0.921              1.106              0.513
 Vibration    31          0.949              1.050              0.464
 Vibration    32          0.959              1.030              0.448
 Vibration    33          0.969              1.010              0.432

 Normal termination of Gaussian 09 at Tue Feb 16 08:28:46 2016.
