 Gaussian 09, Revision B.01,
 Gaussian 09:  EM64L-G09RevB.01 12-Aug-2010

 -------------------------------------------------
 # freq=raman b3lyp/6-31+g(2d,p) geom=connectivity
 -------------------------------------------------

 -----------------
 483 5000/5000.com
 -----------------
 Symbolic Z-matrix:
 Charge =  0 Multiplicity = 1

                         Standard orientation:
 ---------------------------------------------------------------------
 Center     Atomic      Atomic             Coordinates (Angstroms)
 Number     Number       Type             X           Y           Z
 ---------------------------------------------------------------------
      1          8           0        5.056432   -0.465933   -0.270461
      2          6           0        3.754902   -0.038687    0.158665
      3          6           0        3.259189    1.325821   -0.289956
      4          8           0        4.333078    2.278746   -0.303575
      5          1           0        5.130063    1.685721   -0.190715
      6          6           0        1.896290    1.631190    0.310599
      7          8           0        1.168512    2.733644   -0.250256
      8          1           0        0.269961    2.886562    0.159981
      9          6           0        2.987007   -2.540718    0.156646
     10          8           0        4.196746   -3.179461   -0.272922
     11          1           0        4.072260   -4.171761   -0.298558
     12          6           0        2.713702   -1.087830   -0.195430
     13          8           0        1.457647   -0.785157    0.429230
     14          6           0        0.934394    0.488525    0.026892
     15          8           0       -0.316933    0.599174    0.720634
     16          6           0       -1.468350    0.229400   -0.052983
     17          6           0       -1.950968   -1.147784    0.371687
     18          8           0       -0.971278   -2.141073    0.034536
     19          1           0       -0.069126   -1.714475    0.099756
     20          6           0       -3.294604   -1.499584   -0.246867
     21          8           0       -3.745519   -2.760501    0.267496
     22          1           0       -4.691381   -3.004910    0.052735
     23          6           0       -2.380306    2.539909   -0.314308
     24          8           0       -1.437826    3.308678    0.448404
     25          1           0       -1.638413    4.288141    0.435936
     26          6           0       -2.616211    1.165041    0.288762
     27          8           0       -3.854579    0.834579   -0.356084
     28          6           0       -4.356782   -0.450500    0.038752
     29          8           0       -5.559238   -0.725794   -0.692977
     30          1           0       -6.261563   -0.954859   -0.079895
     31          1           0        5.573977   -0.731530    0.493218
     32          1           0        2.173023   -3.116350   -0.231913
     33          1           0        2.953527   -2.616862    1.223408
     34          1           0        2.565998   -1.040313   -1.254121
     35          1           0        3.794299   -0.001942    1.227308
     36          1           0        3.041287    1.191786   -1.328923
     37          1           0        1.991851    1.765207    1.367863
     38          1           0        0.740149    0.461089   -1.024971
     39          1           0       -3.310454    3.067555   -0.350573
     40          1           0       -2.007812    2.422966   -1.310537
     41          1           0       -2.748165    1.235415    1.348260
     42          1           0       -1.252493    0.254101   -1.100693
     43          1           0       -2.067096   -1.144330    1.435361
     44          1           0       -3.172583   -1.584621   -1.306480
     45          1           0       -4.573224   -0.440510    1.086585
 ---------------------------------------------------------------------

 SCF Done:  E(RB3LYP) =  -1297.98374495     A.U. after   13 cycles

 The electronic state is 1-A.
 Alpha  occ. eigenvalues --  -19.18705 -19.18699 -19.18459 -19.18429 -19.17971
 Alpha  occ. eigenvalues --  -19.17904 -19.16264 -19.15628 -19.15486 -19.13760
 Alpha  occ. eigenvalues --  -19.13584 -10.30749 -10.30545 -10.25953 -10.25904
 Alpha  occ. eigenvalues --  -10.25872 -10.25840 -10.25316 -10.24978 -10.24935
 Alpha  occ. eigenvalues --  -10.24573 -10.24322 -10.24083  -1.10503  -1.09080
 Alpha  occ. eigenvalues --   -1.06087  -1.05218  -1.04424  -1.03721  -1.02696
 Alpha  occ. eigenvalues --   -1.02460  -1.02213  -1.00843  -1.00178  -0.82402
 Alpha  occ. eigenvalues --   -0.81165  -0.79323  -0.78637  -0.71774  -0.70217
 Alpha  occ. eigenvalues --   -0.67651  -0.65163  -0.63330  -0.62794  -0.61720
 Alpha  occ. eigenvalues --   -0.60667  -0.56616  -0.56296  -0.55545  -0.55187
 Alpha  occ. eigenvalues --   -0.54531  -0.53521  -0.53284  -0.52056  -0.51122
 Alpha  occ. eigenvalues --   -0.50595  -0.49882  -0.49719  -0.49303  -0.46544
 Alpha  occ. eigenvalues --   -0.46074  -0.45281  -0.44606  -0.44467  -0.43700
 Alpha  occ. eigenvalues --   -0.42685  -0.41990  -0.41567  -0.40228  -0.39360
 Alpha  occ. eigenvalues --   -0.39222  -0.37779  -0.37445  -0.36911  -0.36430
 Alpha  occ. eigenvalues --   -0.35701  -0.34706  -0.34366  -0.34085  -0.33657
 Alpha  occ. eigenvalues --   -0.33313  -0.31794  -0.30995  -0.30463  -0.30036
 Alpha  occ. eigenvalues --   -0.29339  -0.28694  -0.28024  -0.27467  -0.27211
 Alpha  occ. eigenvalues --   -0.26424
 Alpha virt. eigenvalues --   -0.02215  -0.02196  -0.01698  -0.00391   0.00310
 Alpha virt. eigenvalues --    0.00992   0.01877   0.02298   0.03191   0.03497
 Alpha virt. eigenvalues --    0.04087   0.04160   0.05015   0.05325   0.05548

 Mulliken atomic charges:
              1
     1  O   -0.532344
     2  C   -0.154067
     3  C    0.220894
     4  O   -0.564661
     5  H    0.349821
     6  C    0.007647
     7  O   -0.577523
     8  H    0.424319
     9  C   -0.279814
    10  O   -0.540453
    11  H    0.344829
    12  C    0.261167
    13  O   -0.280998
    14  C    0.065680
    15  O   -0.225438
    16  C    0.270298
    17  C    0.137726
    18  O   -0.593722
    19  H    0.393689
    20  C    0.222798
    21  O   -0.559638
    22  H    0.335797
    23  C   -0.235162
    24  O   -0.578699
    25  H    0.360323
    26  C   -0.033071
    27  O   -0.255928
    28  C    0.073598
    29  O   -0.549673
    30  H    0.337800
    31  H    0.353190
    32  H    0.151031
    33  H    0.144291
    34  H    0.108898
    35  H    0.114426
    36  H    0.104798
    37  H    0.123571
    38  H    0.123542
    39  H    0.146075
    40  H    0.155843
    41  H    0.130943
    42  H    0.119663
    43  H    0.124309
    44  H    0.128885
    45  H    0.125339
 Sum of Mulliken atomic charges =   0.00000

 Dipole moment (field-independent basis, Debye):
    X=             -2.8705    Y=             -0.4803    Z=              2.4572  Tot=              3.8090
 Quadrupole moment (field-independent basis, Debye-Ang):
   XX=           -120.3904   YY=           -137.2683   ZZ=           -139.5456
   XY=            -17.2276   XZ=              2.1261   YZ=              2.7385

  Exact polarizability: 235.061   1.118 196.400   0.744  -0.347 143.065
 Approx polarizability: 276.579  -0.219 255.840   0.997  -0.448 238.958

 ******    7 imaginary frequencies (negative Signs) ******

                     1                      2                      3
                     A                      A                      A
 Frequencies --  -290.3117              -207.2623              -186.2973
 Red. masses --     1.7245                 1.2389                 1.2703
 Frc consts  --     0.0856                 0.0314                 0.0260
 IR Inten    --     7.3794               108.9089                88.4841
 Raman Activ --     0.1003                 0.8182                 0.7403

                     4                      5                      6
                     A                      A                      A
 Frequencies --  -179.4478               -72.6172               -50.3055
 Red. masses --     1.9903                 7.0044                 6.3989
 Frc consts  --     0.0378                 0.0218                 0.0095
 IR Inten    --     6.8833                 2.1441                 0.0805
 Raman Activ --     0.0646                 0.0386                 0.0261

                     7                      8                      9
                     A                      A                      A
 Frequencies --   -33.1017                32.7885                75.6732
 Red. masses --     6.5466                 6.8867                 7.1019
 Frc consts  --     0.0042                 0.0044                 0.0240
 IR Inten    --     0.7171                 0.9010                 1.5722
 Raman Activ --     0.0411                 0.0261                 0.1663

                    10                     11                     12
                     A                      A                      A
 Frequencies --    87.4451               102.7037               134.0444
 Red. masses --     5.9415                 5.5170                 5.4877
 Frc consts  --     0.0268                 0.0343                 0.0581
 IR Inten    --     2.2488                10.3689                 1.3555
 Raman Activ --     0.3424                 0.0946                 0.0752

                    13                     14                     15
                     A                      A                      A
 Frequencies --   157.8625               180.9808               190.8749
 Red. masses --     6.4498                 5.5064                 7.6476
 Frc consts  --     0.0947                 0.1063                 0.1642
 IR Inten    --     5.4743                 5.0296                 0.0644
 Raman Activ --     0.4278                 0.6964                 0.6848

                    16                     17                     18
                     A                      A                      A
 Frequencies --   202.3205               238.6405               255.0969
 Red. masses --     6.5844                 5.3500                 4.5122
 Frc consts  --     0.1588                 0.1795                 0.1730
 IR Inten    --     1.0171                 1.5076                17.9108
 Raman Activ --     1.7067                 0.4116                 0.5949

                    19                     20                     21
                     A                      A                      A
 Frequencies --   276.4108               297.8716               304.4353
 Red. masses --     4.5147                 5.1242                 4.7653
 Frc consts  --     0.2032                 0.2679                 0.2602
 IR Inten    --     0.3766                 2.5041                 4.9815
 Raman Activ --     0.2796                 0.2629                 0.0729

                    22                     23                     24
                     A                      A                      A
 Frequencies --   310.0682               317.0290               324.9418
 Red. masses --     5.1406                 5.1962                 5.8569
 Frc consts  --     0.2912                 0.3077                 0.3644
 IR Inten    --     9.4750                 0.6742                 3.8009
 Raman Activ --     0.2656                 1.7294                 2.4305

                    25                     26                     27
                     A                      A                      A
 Frequencies --   340.0867               358.7164               389.4106
 Red. masses --     6.4729                 4.9279                 8.1380
 Frc consts  --     0.4411                 0.3736                 0.7271
 IR Inten    --    10.7647                10.1032                 5.0689
 Raman Activ --     5.4914                 0.4017                 1.8796

                    28                     29                     30
                     A                      A                      A
 Frequencies --   394.3192               418.4006               431.0861
 Red. masses --     5.2623                 5.1719                 5.0622
 Frc consts  --     0.4821                 0.5334                 0.5543
 IR Inten    --    13.8014                12.4003                 6.5205
 Raman Activ --     2.6043                 2.7748                 2.3792

                    31                     32                     33
                     A                      A                      A
 Frequencies --   439.7699               474.9843               490.7532
 Red. masses --     6.1593                 4.6633                 3.6705
 Frc consts  --     0.7018                 0.6199                 0.5208
 IR Inten    --     1.8536                 4.6143                11.0236
 Raman Activ --     7.1620                 2.5716                 1.7705

                    34                     35                     36
                     A                      A                      A
 Frequencies --   525.3172               529.0484               564.4279
 Red. masses --     3.5083                 3.4314                 3.4175
 Frc consts  --     0.5704                 0.5659                 0.6415
 IR Inten    --     5.1710                10.1977                30.5339
 Raman Activ --     2.4285                 3.2561                 1.4204

                    37                     38                     39
                     A                      A                      A
 Frequencies --   585.5560               607.7950               619.7245
 Red. masses --     3.0482                 6.4958                 5.0979
 Frc consts  --     0.6158                 1.4138                 1.1536
 IR Inten    --    14.0646                 2.8016                26.5619
 Raman Activ --     0.4404                 1.0108                 0.3474

                    40                     41                     42
                     A                      A                      A
 Frequencies --   632.2119               673.9721               683.5914
 Red. masses --     4.2136                 3.8373                 1.0522
 Frc consts  --     0.9923                 1.0270                 0.2897
 IR Inten    --    21.1795                21.7772                78.4041
 Raman Activ --     1.6020                 0.4396                 2.2392

                    43                     44                     45
                     A                      A                      A
 Frequencies --   688.7316               694.5587               695.1879
 Red. masses --     1.0919                 1.0988                 1.1533
 Frc consts  --     0.3052                 0.3123                 0.3284
 IR Inten    --    77.8942               185.5969                25.8480
 Raman Activ --     1.8582                 1.4039                 1.6717

                    46                     47                     48
                     A                      A                      A
 Frequencies --   802.0528               834.3728               847.9036
 Red. masses --     1.0624                 1.1520                 1.7694
 Frc consts  --     0.4027                 0.4725                 0.7495
 IR Inten    --    45.8362                65.5400                 5.0482
 Raman Activ --     0.3029                 0.3168                 0.8868

                    49                     50                     51
                     A                      A                      A
 Frequencies --   886.9592               922.7095               961.3375
 Red. masses --     1.5507                 6.2996                 4.6079
 Frc consts  --     0.7187                 3.1601                 2.5090
 IR Inten    --    12.3477               118.7088               146.8133
 Raman Activ --     0.6063                 2.5520                 0.6009

                    52                     53                     54
                     A                      A                      A
 Frequencies --   965.8777               979.0711               986.0765
 Red. masses --     5.1930                 4.1421                 6.1221
 Frc consts  --     2.8544                 2.3394                 3.5073
 IR Inten    --    14.5433                28.6846                73.9280
 Raman Activ --     1.6406                 2.1659                 1.0140

                    55                     56                     57
                     A                      A                      A
 Frequencies --   993.8483              1008.4532              1024.3487
 Red. masses --     7.8599                 6.0631                 5.3907
 Frc consts  --     4.5741                 3.6330                 3.3327
 IR Inten    --   261.0340               170.7606               153.2617
 Raman Activ --     1.5279                 2.3931                 2.7541

                    58                     59                     60
                     A                      A                      A
 Frequencies --  1033.0205              1055.8247              1058.9606
 Red. masses --     7.7752                 5.4648                 3.8431
 Frc consts  --     4.8886                 3.5893                 2.5392
 IR Inten    --   296.7926                59.1948                91.8791
 Raman Activ --     3.2257                 3.4765                14.1261

                    61                     62                     63
                     A                      A                      A
 Frequencies --  1063.8740              1066.9263              1075.7079
 Red. masses --     5.1095                 5.2526                 5.8349
 Frc consts  --     3.4073                 3.5228                 3.9780
 IR Inten    --    85.8970                 1.5689                72.3422
 Raman Activ --     3.9665                10.1414                11.5124

                    64                     65                     66
                     A                      A                      A
 Frequencies --  1103.5138              1108.9359              1109.8694
 Red. masses --     1.9739                 2.4908                 3.1677
 Frc consts  --     1.4162                 1.8047                 2.2990
 IR Inten    --    44.9770                20.7040                64.3796
 Raman Activ --     1.5672                 1.8111                 7.3490

                    67                     68                     69
                     A                      A                      A
 Frequencies --  1116.4266              1121.7472              1131.4015
 Red. masses --     2.5233                 2.5159                 2.2806
 Frc consts  --     1.8530                 1.8653                 1.7200
 IR Inten    --    70.9062                69.5631                 5.7248
 Raman Activ --     5.8455                 7.6922                 6.3738

                    70                     71                     72
                     A                      A                      A
 Frequencies --  1137.3251              1150.7114              1160.8692
 Red. masses --     2.7776                 1.5597                 3.2872
 Frc consts  --     2.1168                 1.2168                 2.6100
 IR Inten    --    28.0652                 7.5524                25.8229
 Raman Activ --     6.8364                 0.6636                 3.4949

                    73                     74                     75
                     A                      A                      A
 Frequencies --  1168.8373              1176.5896              1195.2954
 Red. masses --     2.1901                 1.5810                 1.6925
 Frc consts  --     1.7629                 1.2895                 1.4248
 IR Inten    --    17.4146                 5.6235                10.0950
 Raman Activ --     3.3659                 2.4654                 2.0368

                    76                     77                     78
                     A                      A                      A
 Frequencies --  1201.8029              1228.0720              1234.6160
 Red. masses --     1.4679                 1.2413                 1.4299
 Frc consts  --     1.2492                 1.1030                 1.2841
 IR Inten    --     3.0965                23.2177                 1.9609
 Raman Activ --     2.0831                 2.4478                 1.2606

                    79                     80                     81
                     A                      A                      A
 Frequencies --  1240.6435              1242.1788              1258.2659
 Red. masses --     1.3230                 1.3454                 1.1822
 Frc consts  --     1.1998                 1.2231                 1.1028
 IR Inten    --     4.2258                19.5722                18.6876
 Raman Activ --     2.1262                 0.9600                 5.1862

                    82                     83                     84
                     A                      A                      A
 Frequencies --  1262.3192              1276.7597              1284.1438
 Red. masses --     1.2050                 1.2818                 1.2666
 Frc consts  --     1.1313                 1.2311                 1.2306
 IR Inten    --    17.0219                18.0757                56.2599
 Raman Activ --     1.2536                 3.3874                 4.0529

                    85                     86                     87
                     A                      A                      A
 Frequencies --  1287.3606              1296.1821              1303.9560
 Red. masses --     1.3044                 1.3119                 1.2398
 Frc consts  --     1.2737                 1.2986                 1.2421
 IR Inten    --    11.8790                10.8486                17.1326
 Raman Activ --     3.7143                 8.4543                 3.5128

                    88                     89                     90
                     A                      A                      A
 Frequencies --  1317.3504              1320.0069              1325.9162
 Red. masses --     1.2112                 1.3169                 1.2815
 Frc consts  --     1.2384                 1.3520                 1.3274
 IR Inten    --     4.8080                22.7206                11.3668
 Raman Activ --     6.2536                 4.0408                 1.3230

                    91                     92                     93
                     A                      A                      A
 Frequencies --  1333.9199              1335.9386              1347.0203
 Red. masses --     1.3698                 1.2607                 1.1386
 Frc consts  --     1.4361                 1.3257                 1.2172
 IR Inten    --    41.2983                59.2572                18.0422
 Raman Activ --    11.0802                 1.5506                 0.6535

                    94                     95                     96
                     A                      A                      A
 Frequencies --  1359.8202              1370.6681              1389.4760
 Red. masses --     1.5513                 1.3225                 1.5565
 Frc consts  --     1.6901                 1.4639                 1.7705
 IR Inten    --     6.4504                 1.4922                14.9913
 Raman Activ --     6.5069                 1.8540                 4.8644

                    97                     98                     99
                     A                      A                      A
 Frequencies --  1392.4023              1394.8471              1407.3246
 Red. masses --     1.3607                 1.5402                 1.3129
 Frc consts  --     1.5544                 1.7655                 1.5320
 IR Inten    --    18.5089                23.6059                 2.5021
 Raman Activ --     2.6454                 7.8635                 6.4218

                   100                    101                    102
                     A                      A                      A
 Frequencies --  1413.4050              1418.2019              1444.6219
 Red. masses --     1.1759                 1.3893                 1.3868
 Frc consts  --     1.3841                 1.6464                 1.7052
 IR Inten    --     3.4547                40.1864                10.8827
 Raman Activ --     1.7936                 1.4531                 1.2862

                   103                    104                    105
                     A                      A                      A
 Frequencies --  1459.9575              1473.6126              1479.1033
 Red. masses --     1.3122                 1.1381                 1.0796
 Frc consts  --     1.6479                 1.4561                 1.3915
 IR Inten    --    18.1116                 3.1927                 7.1181
 Raman Activ --     3.1180                 2.3116                 3.9759

                   106                    107                    108
                     A                      A                      A
 Frequencies --  1510.6757              1528.3452              3246.4038
 Red. masses --     1.2544                 1.2148                 1.0784
 Frc consts  --     1.6866                 1.6719                 6.6965
 IR Inten    --    87.1212                48.0976                15.1596
 Raman Activ --     1.5252                 1.6922                90.8156

                   109                    110                    111
                     A                      A                      A
 Frequencies --  3255.9573              3257.3051              3260.7757
 Red. masses --     1.0665                 1.0596                 1.0782
 Frc consts  --     6.6616                 6.6237                 6.7543
 IR Inten    --   297.2329                32.5759                85.7801
 Raman Activ --    79.2101               112.0701                20.9885

                   112                    113                    114
                     A                      A                      A
 Frequencies --  3268.0227              3271.0213              3276.4566
 Red. masses --     1.0654                 1.0763                 1.0847
 Frc consts  --     6.7039                 6.7849                 6.8604
 IR Inten    --    33.8807               470.2943                28.0993
 Raman Activ --   337.1513                27.1413                41.4910

                   115                    116                    117
                     A                      A                      A
 Frequencies --  3276.9532              3277.8588              3286.9247
 Red. masses --     1.0842                 1.0843                 1.0744
 Frc consts  --     6.8595                 6.8642                 6.8388
 IR Inten    --    14.9750                 9.6568               658.2689
 Raman Activ --    92.0582                59.1601                57.0426

                   118                    119                    120
                     A                      A                      A
 Frequencies --  3289.4058              3293.1673              3294.8989
 Red. masses --     1.0841                 1.0861                 1.0862
 Frc consts  --     6.9113                 6.9395                 6.9475
 IR Inten    --    18.2101                41.3834                19.0346
 Raman Activ --   136.1331                 2.6322                15.6658

                   121                    122                    123
                     A                      A                      A
 Frequencies --  3305.8301              3311.5247              3327.5728
 Red. masses --     1.0864                 1.1050                 1.1081
 Frc consts  --     6.9951                 7.1393                 7.2293
 IR Inten    --    73.5922                57.3815                44.1773
 Raman Activ --    15.0848                34.7335                31.5272

                   124                    125                    126
                     A                      A                      A
 Frequencies --  3346.8119              3363.8242              3363.8917
 Red. masses --     1.0656                 1.0675                 1.0674
 Frc consts  --     7.0327                 7.1168                 7.1163
 IR Inten    --    63.1345                33.0817                54.5082
 Raman Activ --    66.6603                93.1362               237.9035

                   127                    128                    129
                     A                      A                      A
 Frequencies --  3375.0030              3890.1543              3891.9448
 Red. masses --     1.0687                 1.0678                 1.0675
 Frc consts  --     7.1723                 9.5206                 9.5271
 IR Inten    --    54.8071                97.1704                79.0280
 Raman Activ --   164.5669                71.6585               109.8451

 - Thermochemistry -
 -------------------
 Temperature   298.150 Kelvin.  Pressure   1.00000 Atm.
 Atom     1 has atomic number  8 and mass  15.99491

 Molecular mass:   342.11621 amu.
 Principal axes and moments of inertia in atomic units:
                           1         2         3
     Eigenvalues --  4366.05883********************
           X            0.99997  -0.00767   0.00009
           Y            0.00767   0.99997  -0.00098
           Z           -0.00008   0.00098   1.00000
 This molecule is an asymmetric top.
 Rotational symmetry number  1.
 Warning -- assumption of classical behavior for rotation
           may cause significant error
 Rotational temperatures (Kelvin)      0.01984     0.00696     0.00528
 Rotational constants (GHZ):           0.41336     0.14506     0.11009
    7 imaginary frequencies ignored.
 Zero-point vibrational energy     974037.2 (Joules/Mol)
                                  232.80048 (Kcal/Mol)
 Warning -- explicit consideration of  32 degrees of freedom as
           vibrations may cause significant error
 Vibrational temperatures:     47.18   108.88   125.81   147.77   192.86
          (Kelvin)            227.13   260.39   274.63   291.09   343.35
                              367.03   397.69   428.57   438.01   446.12
                              456.13   467.52   489.31   516.11   560.27
                              567.34   601.98   620.24   632.73   683.40
                              706.08   755.81   761.18   812.08   842.48
                              874.48   891.64   909.61   969.69   983.53
                              990.93   999.31  1000.22  1153.97  1200.47
                             1219.94  1276.13  1327.57  1383.15  1389.68
                             1408.66  1418.74  1429.92  1450.94  1473.81
                             1486.28  1519.09  1523.61  1530.68  1535.07
                             1547.70  1587.71  1595.51  1596.85  1606.29
                             1613.94  1627.83  1636.36  1655.62  1670.23
                             1681.69  1692.85  1719.76  1729.12  1766.92
                             1776.33  1785.01  1787.22  1810.36  1816.19
                             1836.97  1847.59  1852.22  1864.91  1876.10
                             1895.37  1899.19  1907.70  1919.21  1922.12
                             1938.06  1956.48  1972.08  1999.14  2003.35
                             2006.87  2024.82  2033.57  2040.47  2078.49
                             2100.55  2120.20  2128.10  2173.52  2198.95
                             4670.85  4684.59  4686.53  4691.52  4701.95
                             4706.26  4714.08  4714.80  4716.10  4729.15
                             4732.72  4738.13  4740.62  4756.35  4764.54
                             4787.63  4815.31  4839.79  4839.88  4855.87
                             5597.06  5599.63

 Zero-point correction=                           0.370991 (Hartree/Particle)
 Thermal correction to Energy=                    0.389266
 Thermal correction to Enthalpy=                  0.390210
 Thermal correction to Gibbs Free Energy=         0.325602
 Sum of electronic and zero-point Energies=          -1297.612754
 Sum of electronic and thermal Energies=             -1297.594479
 Sum of electronic and thermal Enthalpies=           -1297.593535
 Sum of electronic and thermal Free Energies=        -1297.658143

                     E (Thermal)             CV                S
                      KCal/Mol        Cal/Mol-Kelvin    Cal/Mol-Kelvin
 Total                  244.268             76.022            135.979
 Electronic               0.000              0.000              0.000
 Translational            0.889              2.981             43.384
 Rotational               0.889              2.981             35.142
 Vibrational            242.490             70.060             57.452
 Vibration     1          0.594              1.983              5.653
 Vibration     2          0.599              1.965              4.000
 Vibration     3          0.601              1.958              3.716
 Vibration     4          0.605              1.947              3.402
 Vibration     5          0.613              1.919              2.887
 Vibration     6          0.621              1.894              2.575
 Vibration     7          0.630              1.866              2.318
 Vibration     8          0.634              1.852              2.219
 Vibration     9          0.639              1.837              2.112
 Vibration    10          0.657              1.781              1.813
 Vibration    11          0.665              1.754              1.695
 Vibration    12          0.678              1.717              1.556
 Vibration    13          0.691              1.678              1.429
 Vibration    14          0.695              1.665              1.392
 Vibration    15          0.699              1.655              1.362
 Vibration    16          0.704              1.641              1.325
 Vibration    17          0.709              1.626              1.285
 Vibration    18          0.720              1.595              1.212
 Vibration    19          0.734              1.557              1.128
 Vibration    20          0.757              1.493              1.002
 Vibration    21          0.761              1.482              0.984
 Vibration    22          0.781              1.430              0.897
 Vibration    23          0.792              1.403              0.855
 Vibration    24          0.800              1.383              0.827
 Vibration    25          0.832              1.306              0.724
 Vibration    26          0.847              1.271              0.682
 Vibration    27          0.880              1.194              0.598
 Vibration    28          0.884              1.186              0.589
 Vibration    29          0.920              1.108              0.515
 Vibration    30          0.943              1.063              0.475
 Vibration    31          0.967              1.015              0.436
 Vibration    32          0.980              0.990              0.417

 Normal termination of Gaussian 09 at Tue Mar 29 19:13:16 2016.
