 Gaussian 09, Revision B.01,
 Gaussian 09:  EM64L-G09RevB.01 12-Aug-2010

 -------------------------------------------------
 # freq=raman b3lyp/6-31+g(2d,p) geom=connectivity
 -------------------------------------------------

 -----------------
 300 9485/9485.com
 -----------------
 Symbolic Z-matrix:
 Charge =  0 Multiplicity = 1

                         Standard orientation:
 ---------------------------------------------------------------------
 Center     Atomic      Atomic             Coordinates (Angstroms)
 Number     Number       Type             X           Y           Z
 ---------------------------------------------------------------------
      1          8           0        5.054063   -0.419248   -0.218077
      2          6           0        3.721663   -0.092122    0.202134
      3          6           0        3.208250    1.232049   -0.337779
      4          8           0        4.159320    2.227625    0.069453
      5          1           0        5.041672    1.901012   -0.269941
      6          6           0        1.815220    1.581635    0.159721
      7          8           0        1.350397    2.865015   -0.282801
      8          1           0        0.381233    3.028170   -0.100933
      9          6           0        3.141662   -2.551093    0.065420
     10          8           0        4.294919   -3.218402   -0.468992
     11          1           0        4.090598   -4.196939   -0.499851
     12          6           0        2.701067   -1.128513   -0.239871
     13          8           0        1.389506   -0.860032    0.278163
     14          6           0        0.909987    0.410350   -0.184854
     15          8           0       -0.282701    0.585749    0.594252
     16          6           0       -1.525718    0.186174   -0.001511
     17          6           0       -2.080740   -1.104214    0.578361
     18          8           0       -1.045915   -2.097993    0.605328
     19          1           0       -0.153890   -1.698874    0.816828
     20          6           0       -3.345141   -1.523100   -0.154003
     21          8           0       -3.924121   -2.802830    0.140472
     22          1           0       -4.742076   -2.931193   -0.421578
     23          6           0       -2.281385    2.629527   -0.279349
     24          8           0       -1.207802    3.297167    0.398862
     25          1           0       -1.335688    4.287711    0.363666
     26          6           0       -2.603287    1.233629    0.228039
     27          8           0       -3.829690    0.824557   -0.394253
     28          6           0       -4.375385   -0.424540    0.053944
     29          8           0       -5.519324   -0.670291   -0.778230
     30          1           0        5.576846   -0.674491    0.545565
     31          1           0        2.307044   -3.171758   -0.185754
     32          1           0        3.248265   -2.598084    1.129059
     33          1           0        2.630594   -1.052374   -1.304830
     34          1           0        3.711126   -0.045104    1.271048
     35          1           0        3.191511    1.186304   -1.406669
     36          1           0        1.869303    1.627274    1.227378
     37          1           0        0.686544    0.384130   -1.230935
     38          1           0       -6.259350   -0.945087   -0.231925
     39          1           0       -3.161543    3.230861   -0.186510
     40          1           0       -2.029593    2.558947   -1.316903
     41          1           0       -2.774881    1.299940    1.282106
     42          1           0       -1.381427    0.060423   -1.054253
     43          1           0       -2.354856   -0.905177    1.593321
     44          1           0       -3.105369   -1.530897   -1.196763
     45          1           0       -4.662433   -0.364033    1.082945
 ---------------------------------------------------------------------

 SCF Done:  E(RB3LYP) =  -1297.98442804     A.U. after   13 cycles

 The electronic state is 1-A.
 Alpha  occ. eigenvalues --  -19.19358 -19.19165 -19.18438 -19.18161 -19.17986
 Alpha  occ. eigenvalues --  -19.17204 -19.16284 -19.16196 -19.14453 -19.13505
 Alpha  occ. eigenvalues --  -19.13461 -10.30913 -10.30869 -10.26208 -10.25732
 Alpha  occ. eigenvalues --  -10.25663 -10.25464 -10.24862 -10.24855 -10.24583
 Alpha  occ. eigenvalues --  -10.24473 -10.24040 -10.24015  -1.10445  -1.09217
 Alpha  occ. eigenvalues --   -1.06066  -1.05320  -1.04236  -1.03681  -1.02622
 Alpha  occ. eigenvalues --   -1.02484  -1.01641  -1.00296  -0.99703  -0.82478
 Alpha  occ. eigenvalues --   -0.80742  -0.79900  -0.78491  -0.72170  -0.70239
 Alpha  occ. eigenvalues --   -0.67321  -0.64631  -0.63262  -0.62494  -0.61758
 Alpha  occ. eigenvalues --   -0.60481  -0.56670  -0.55981  -0.55501  -0.54889
 Alpha  occ. eigenvalues --   -0.54222  -0.53584  -0.53064  -0.51432  -0.51401
 Alpha  occ. eigenvalues --   -0.50862  -0.50454  -0.49385  -0.48853  -0.46797
 Alpha  occ. eigenvalues --   -0.46456  -0.45158  -0.44749  -0.43993  -0.43463
 Alpha  occ. eigenvalues --   -0.42725  -0.42004  -0.41302  -0.40478  -0.39564
 Alpha  occ. eigenvalues --   -0.39276  -0.38161  -0.37841  -0.35745  -0.35529
 Alpha  occ. eigenvalues --   -0.35261  -0.34604  -0.34099  -0.33835  -0.33569
 Alpha  occ. eigenvalues --   -0.33038  -0.31878  -0.31050  -0.30333  -0.29880
 Alpha  occ. eigenvalues --   -0.29493  -0.28519  -0.27890  -0.27307  -0.26604
 Alpha  occ. eigenvalues --   -0.26358
 Alpha virt. eigenvalues --   -0.02170  -0.01901  -0.01825  -0.00279   0.00264
 Alpha virt. eigenvalues --    0.00804   0.01785   0.02056   0.02974   0.03375
 Alpha virt. eigenvalues --    0.03767   0.04307   0.04616   0.05273   0.05463

 Mulliken atomic charges:
              1
     1  O   -0.551638
     2  C   -0.029267
     3  C    0.191236
     4  O   -0.553091
     5  H    0.345787
     6  C   -0.081310
     7  O   -0.605753
     8  H    0.430051
     9  C   -0.342564
    10  O   -0.514083
    11  H    0.340466
    12  C    0.281497
    13  O   -0.261340
    14  C    0.244665
    15  O   -0.224846
    16  C    0.237593
    17  C    0.199345
    18  O   -0.573033
    19  H    0.382482
    20  C   -0.001164
    21  O   -0.553425
    22  H    0.341465
    23  C   -0.256011
    24  O   -0.571212
    25  H    0.367007
    26  C   -0.095587
    27  O   -0.254842
    28  C    0.209728
    29  O   -0.555664
    30  H    0.346575
    31  H    0.144240
    32  H    0.137338
    33  H    0.107286
    34  H    0.117829
    35  H    0.119657
    36  H    0.128179
    37  H    0.124781
    38  H    0.340672
    39  H    0.148981
    40  H    0.156323
    41  H    0.123177
    42  H    0.104514
    43  H    0.104777
    44  H    0.120169
    45  H    0.129010
 Sum of Mulliken atomic charges =   0.00000

 Dipole moment (field-independent basis, Debye):
    X=             -3.0867    Y=              0.1329    Z=              0.8509  Tot=              3.2046
 Quadrupole moment (field-independent basis, Debye-Ang):
   XX=           -122.5510   YY=           -136.6350   ZZ=           -138.6124
   XY=            -16.6480   XZ=              1.0281   YZ=              2.2242

  Exact polarizability: 234.068   0.876 197.739   1.455  -0.175 144.457
 Approx polarizability: 275.359   0.599 257.702   1.555   1.059 240.004

 ******    6 imaginary frequencies (negative Signs) ******

                     1                      2                      3
                     A                      A                      A
 Frequencies --  -344.2942              -230.2421              -214.7269
 Red. masses --     1.6211                 1.7939                 1.2205
 Frc consts  --     0.1132                 0.0560                 0.0332
 IR Inten    --     4.5091                 3.2970               111.1326
 Raman Activ --     0.0818                 0.0642                 0.8467

                     4                      5                      6
                     A                      A                      A
 Frequencies --  -207.6732               -77.2211               -44.6988
 Red. masses --     1.1680                 6.8527                 6.1490
 Frc consts  --     0.0297                 0.0241                 0.0072
 IR Inten    --   111.6886                 1.3370                 0.1299
 Raman Activ --     0.7036                 0.0732                 0.0386

                     7                      8                      9
                     A                      A                      A
 Frequencies --    48.2142                62.0511                75.0146
 Red. masses --     7.2461                 6.4828                 7.1587
 Frc consts  --     0.0099                 0.0147                 0.0237
 IR Inten    --     1.3792                 1.9623                 0.2926
 Raman Activ --     0.0270                 0.0322                 0.1555

                    10                     11                     12
                     A                      A                      A
 Frequencies --    90.7955               105.1340               134.2231
 Red. masses --     6.4024                 6.0425                 5.6408
 Frc consts  --     0.0311                 0.0394                 0.0599
 IR Inten    --     1.8135                 4.8904                 3.3566
 Raman Activ --     0.4554                 0.0630                 0.0696

                    13                     14                     15
                     A                      A                      A
 Frequencies --   157.5625               170.9263               186.1457
 Red. masses --     6.0766                 5.8758                 7.5909
 Frc consts  --     0.0889                 0.1011                 0.1550
 IR Inten    --     9.7488                 1.1457                 0.2137
 Raman Activ --     0.2194                 0.6264                 0.6272

                    16                     17                     18
                     A                      A                      A
 Frequencies --   215.9263               232.4434               262.7934
 Red. masses --     6.9620                 5.7309                 4.2984
 Frc consts  --     0.1912                 0.1824                 0.1749
 IR Inten    --     0.2726                 2.4491                19.4102
 Raman Activ --     2.8091                 0.3777                 0.2391

                    19                     20                     21
                     A                      A                      A
 Frequencies --   280.3405               293.3024               305.2202
 Red. masses --     4.8676                 5.6571                 5.3608
 Frc consts  --     0.2254                 0.2867                 0.2942
 IR Inten    --     0.5621                 1.1504                 4.5957
 Raman Activ --     0.1099                 0.4960                 1.8259

                    22                     23                     24
                     A                      A                      A
 Frequencies --   307.4128               311.3089               318.2663
 Red. masses --     5.5568                 5.3554                 5.1032
 Frc consts  --     0.3094                 0.3058                 0.3046
 IR Inten    --     4.5466                 4.5213                 2.1637
 Raman Activ --     1.9947                 2.1932                 1.6733

                    25                     26                     27
                     A                      A                      A
 Frequencies --   342.5412               357.7078               376.4008
 Red. masses --     6.4210                 5.0667                 6.2214
 Frc consts  --     0.4439                 0.3820                 0.5193
 IR Inten    --    13.6732                 8.0411                 1.5084
 Raman Activ --     2.8828                 0.7907                 0.4965

                    28                     29                     30
                     A                      A                      A
 Frequencies --   398.5461               411.2723               428.5180
 Red. masses --     4.6793                 6.1668                 5.6819
 Frc consts  --     0.4379                 0.6146                 0.6147
 IR Inten    --    16.4436                 3.3559                 1.1646
 Raman Activ --     2.1262                 5.2890                 1.6663

                    31                     32                     33
                     A                      A                      A
 Frequencies --   431.8223               479.1978               486.4568
 Red. masses --     4.6174                 4.2506                 4.5109
 Frc consts  --     0.5073                 0.5751                 0.6289
 IR Inten    --     1.5066                 1.2758                13.2035
 Raman Activ --     4.8986                 2.8974                 0.4026

                    34                     35                     36
                     A                      A                      A
 Frequencies --   508.4412               526.7326               562.1446
 Red. masses --     4.0149                 3.4426                 4.7156
 Frc consts  --     0.6115                 0.5627                 0.8780
 IR Inten    --    13.3510                 8.1209                13.0623
 Raman Activ --     1.7459                 6.0724                 1.3112

                    37                     38                     39
                     A                      A                      A
 Frequencies --   580.8781               587.9376               606.4140
 Red. masses --     4.9659                 3.5980                 4.2046
 Frc consts  --     0.9872                 0.7328                 0.9110
 IR Inten    --    11.6469                13.4385                35.4619
 Raman Activ --     0.6974                 0.3393                 1.1609

                    40                     41                     42
                     A                      A                      A
 Frequencies --   624.2610               679.0924               687.1996
 Red. masses --     3.6512                 2.7770                 1.3238
 Frc consts  --     0.8383                 0.7545                 0.3683
 IR Inten    --    22.1880                40.0337                71.8178
 Raman Activ --     0.8956                 0.8490                 2.0172

                    43                     44                     45
                     A                      A                      A
 Frequencies --   723.2186               729.5375               742.5507
 Red. masses --     1.0769                 1.0842                 1.0621
 Frc consts  --     0.3319                 0.3400                 0.3450
 IR Inten    --   103.1768               149.2317                78.7925
 Raman Activ --     3.4769                 1.7040                 1.6239

                    46                     47                     48
                     A                      A                      A
 Frequencies --   766.0877               819.3387               839.0059
 Red. masses --     1.0885                 1.1146                 1.8469
 Frc consts  --     0.3764                 0.4409                 0.7660
 IR Inten    --   103.5099                49.5111                 2.6179
 Raman Activ --     1.7323                 0.4185                 0.5685

                    49                     50                     51
                     A                      A                      A
 Frequencies --   868.3815               921.6419               952.8647
 Red. masses --     1.6082                 5.4478                 5.7300
 Frc consts  --     0.7145                 2.7264                 3.0652
 IR Inten    --     8.8389               131.3326                51.3521
 Raman Activ --     0.3550                 3.3608                 0.5380

                    52                     53                     54
                     A                      A                      A
 Frequencies --   964.0156               972.5679               984.0193
 Red. masses --     5.4287                 5.8725                 4.5309
 Frc consts  --     2.9724                 3.2727                 2.5849
 IR Inten    --    28.5648               234.2815                44.0336
 Raman Activ --     1.8080                 0.5892                 0.5699

                    55                     56                     57
                     A                      A                      A
 Frequencies --   993.5584              1014.3057              1019.5247
 Red. masses --     6.0689                 6.1330                 6.0113
 Frc consts  --     3.5298                 3.7176                 3.6814
 IR Inten    --   281.6690                56.3409               144.8265
 Raman Activ --     2.1989                 4.3680                 1.0895

                    58                     59                     60
                     A                      A                      A
 Frequencies --  1029.9629              1051.8331              1064.2023
 Red. masses --     7.0765                 6.6212                 6.7720
 Frc consts  --     4.4230                 4.3160                 4.5187
 IR Inten    --   282.8663               190.6625               136.9461
 Raman Activ --     3.2679                 2.6185                 0.8171

                    61                     62                     63
                     A                      A                      A
 Frequencies --  1069.7399              1076.8496              1079.7912
 Red. masses --     3.3727                 4.1309                 3.8391
 Frc consts  --     2.2740                 2.8223                 2.6373
 IR Inten    --     9.8837                14.7010                 3.1655
 Raman Activ --     5.0578                 9.2676                17.5225

                    64                     65                     66
                     A                      A                      A
 Frequencies --  1092.4581              1101.9012              1113.2590
 Red. masses --     2.6073                 2.5874                 3.1956
 Frc consts  --     1.8334                 1.8509                 2.3334
 IR Inten    --    47.2773                54.2013                28.9404
 Raman Activ --    10.9567                 1.7310                 8.4068

                    67                     68                     69
                     A                      A                      A
 Frequencies --  1119.1101              1134.7094              1136.5706
 Red. masses --     2.5813                 1.9853                 2.5566
 Frc consts  --     1.9047                 1.5061                 1.9458
 IR Inten    --    17.4365                25.0455                28.3264
 Raman Activ --     7.4514                 3.1395                 6.5902

                    70                     71                     72
                     A                      A                      A
 Frequencies --  1143.1277              1150.6898              1157.7061
 Red. masses --     3.1991                 2.7481                 1.8275
 Frc consts  --     2.4630                 2.1439                 1.4431
 IR Inten    --    44.8931                44.9417                 4.9136
 Raman Activ --     5.2480                 3.3496                 1.8073

                    73                     74                     75
                     A                      A                      A
 Frequencies --  1168.9666              1178.8630              1186.1591
 Red. masses --     1.9041                 1.9928                 1.7592
 Frc consts  --     1.5330                 1.6317                 1.4583
 IR Inten    --    14.3477                 0.6498                 1.6668
 Raman Activ --     4.5396                 1.1681                 2.1980

                    76                     77                     78
                     A                      A                      A
 Frequencies --  1207.4358              1214.6488              1233.8919
 Red. masses --     1.4332                 1.3475                 1.2510
 Frc consts  --     1.2311                 1.1714                 1.1222
 IR Inten    --    19.6554                 5.4687                 8.0674
 Raman Activ --     2.8365                 0.6830                 1.8264

                    79                     80                     81
                     A                      A                      A
 Frequencies --  1240.5395              1245.2156              1267.6124
 Red. masses --     1.2746                 1.1786                 1.3346
 Frc consts  --     1.1557                 1.0767                 1.2635
 IR Inten    --     2.7902                14.1452                 4.3296
 Raman Activ --     1.1940                 1.7572                 2.5577

                    82                     83                     84
                     A                      A                      A
 Frequencies --  1273.9480              1283.7349              1286.7364
 Red. masses --     1.2204                 1.2407                 1.3077
 Frc consts  --     1.1669                 1.2046                 1.2757
 IR Inten    --    20.6701                16.7050                16.9468
 Raman Activ --     4.5986                 0.7990                 1.2474

                    85                     86                     87
                     A                      A                      A
 Frequencies --  1300.8923              1308.3132              1316.2905
 Red. masses --     1.3292                 1.3749                 1.3229
 Frc consts  --     1.3254                 1.3866                 1.3505
 IR Inten    --     3.4281                36.6743                 7.5344
 Raman Activ --     5.0243                 1.6748                 1.3977

                    88                     89                     90
                     A                      A                      A
 Frequencies --  1324.3740              1331.9526              1337.6229
 Red. masses --     1.2787                 1.1688                 1.2727
 Frc consts  --     1.3214                 1.2217                 1.3417
 IR Inten    --    17.4541                 4.5760                74.3927
 Raman Activ --     6.3216                 9.1155                 4.0698

                    91                     92                     93
                     A                      A                      A
 Frequencies --  1341.1385              1346.0029              1349.2300
 Red. masses --     1.1790                 1.2131                 1.2461
 Frc consts  --     1.2494                 1.2949                 1.3365
 IR Inten    --     1.6837                23.9680                18.9578
 Raman Activ --     6.9702                 4.8864                 2.8821

                    94                     95                     96
                     A                      A                      A
 Frequencies --  1363.1959              1368.0101              1372.1324
 Red. masses --     1.3386                 1.4521                 1.1145
 Frc consts  --     1.4656                 1.6012                 1.2363
 IR Inten    --    11.0035                 6.5762                31.9273
 Raman Activ --     2.6807                 7.9001                 2.3660

                    97                     98                     99
                     A                      A                      A
 Frequencies --  1387.8355              1389.9017              1403.5422
 Red. masses --     1.4584                 1.4809                 1.4095
 Frc consts  --     1.6550                 1.6856                 1.6359
 IR Inten    --     5.2782                 4.8798                 7.6015
 Raman Activ --     8.4536                 3.4518                 3.4437

                   100                    101                    102
                     A                      A                      A
 Frequencies --  1426.2469              1436.5253              1462.1774
 Red. masses --     1.3711                 1.4336                 1.2465
 Frc consts  --     1.6433                 1.7430                 1.5701
 IR Inten    --    25.6699                15.9677                26.9443
 Raman Activ --     0.8950                 0.7332                 5.5167

                   103                    104                    105
                     A                      A                      A
 Frequencies --  1466.5315              1468.0124              1474.5855
 Red. masses --     1.3245                 1.1771                 1.0840
 Frc consts  --     1.6784                 1.4946                 1.3887
 IR Inten    --    41.3804                13.2989                 4.8256
 Raman Activ --     0.4077                 3.6166                 4.8792

                   106                    107                    108
                     A                      A                      A
 Frequencies --  1476.2141              1487.2874              3233.8496
 Red. masses --     1.3179                 1.3004                 1.0698
 Frc consts  --     1.6921                 1.6948                 6.5915
 IR Inten    --     9.1477                57.9458               945.9792
 Raman Activ --     0.6658                 1.0968               170.6163

                   109                    110                    111
                     A                      A                      A
 Frequencies --  3248.5057              3256.7543              3261.7987
 Red. masses --     1.0602                 1.0812                 1.0799
 Frc consts  --     6.5920                 6.7567                 6.7695
 IR Inten    --    26.2647                62.4615                24.8276
 Raman Activ --    95.1114                19.1507                11.8978

                   112                    113                    114
                     A                      A                      A
 Frequencies --  3264.9925              3270.8900              3273.0967
 Red. masses --     1.0608                 1.0814                 1.0814
 Frc consts  --     6.6626                 6.8167                 6.8261
 IR Inten    --    24.3274                11.3891                12.2753
 Raman Activ --   261.1015                 6.3907               106.0548

                   115                    116                    117
                     A                      A                      A
 Frequencies --  3274.8250              3279.6032              3285.1156
 Red. masses --     1.0821                 1.0831                 1.0866
 Frc consts  --     6.8374                 6.8639                 6.9093
 IR Inten    --     4.5467                 7.9432                 3.1813
 Raman Activ --   135.8668                32.1485                10.1459

                   118                    119                    120
                     A                      A                      A
 Frequencies --  3288.5507              3295.3858              3297.2767
 Red. masses --     1.0861                 1.0886                 1.0937
 Frc consts  --     6.9204                 6.9649                 7.0061
 IR Inten    --     8.6700                44.7754                56.3391
 Raman Activ --    74.0098                15.7884                20.4567

                   121                    122                    123
                     A                      A                      A
 Frequencies --  3301.6703              3322.5503              3324.4117
 Red. masses --     1.0928                 1.1066                 1.0684
 Frc consts  --     7.0189                 7.1978                 6.9568
 IR Inten    --   138.6475                60.8242               538.2805
 Raman Activ --     6.9805                53.4271               136.9796

                   124                    125                    126
                     A                      A                      A
 Frequencies --  3359.0988              3362.5838              3367.1073
 Red. masses --     1.0658                 1.0652                 1.0684
 Frc consts  --     7.0855                 7.0963                 7.1366
 IR Inten    --    45.6808                37.1689                50.3828
 Raman Activ --   122.3284                93.4942               150.7144

                   127                    128                    129
                     A                      A                      A
 Frequencies --  3381.6580              3890.8504              3893.0462
 Red. masses --     1.0676                 1.0676                 1.0673
 Frc consts  --     7.1929                 9.5226                 9.5307
 IR Inten    --    65.0060                90.4808                79.3026
 Raman Activ --   142.9484                78.9018               113.9847

 - Thermochemistry -
 -------------------
 Temperature   298.150 Kelvin.  Pressure   1.00000 Atm.
 Atom     1 has atomic number  8 and mass  15.99491

 Molecular mass:   342.11621 amu.
 Principal axes and moments of inertia in atomic units:
                           1         2         3
     Eigenvalues --  4444.66834********************
           X            0.99997  -0.00790   0.00001
           Y            0.00790   0.99997  -0.00089
           Z            0.00000   0.00089   1.00000
 This molecule is an asymmetric top.
 Rotational symmetry number  1.
 Warning -- assumption of classical behavior for rotation
           may cause significant error
 Rotational temperatures (Kelvin)      0.01949     0.00693     0.00526
 Rotational constants (GHZ):           0.40605     0.14449     0.10951
    6 imaginary frequencies ignored.
 Zero-point vibrational energy     974505.3 (Joules/Mol)
                                  232.91235 (Kcal/Mol)
 Warning -- explicit consideration of  33 degrees of freedom as
           vibrations may cause significant error
 Vibrational temperatures:     69.37    89.28   107.93   130.63   151.26
          (Kelvin)            193.12   226.70   245.92   267.82   310.67
                              334.43   378.10   403.35   422.00   439.14
                              442.30   447.90   457.91   492.84   514.66
                              541.56   573.42   591.73   616.54   621.30
                              689.46   699.90   731.53   757.85   808.80
                              835.75   845.91   872.49   898.17   977.06
                              988.73  1040.55  1049.64  1068.36  1102.23
                             1178.84  1207.14  1249.41  1326.04  1370.96
                             1387.00  1399.31  1415.78  1429.51  1459.36
                             1466.87  1481.89  1513.35  1531.15  1539.12
                             1549.34  1553.58  1571.80  1585.39  1601.73
                             1610.15  1632.59  1635.27  1644.70  1655.58
                             1665.68  1681.88  1696.12  1706.62  1737.23
                             1747.61  1775.29  1784.86  1791.59  1823.81
                             1832.92  1847.01  1851.32  1871.69  1882.37
                             1893.85  1905.48  1916.38  1924.54  1929.60
                             1936.60  1941.24  1961.33  1968.26  1974.19
                             1996.78  1999.76  2019.38  2052.05  2066.84
                             2103.74  2110.01  2112.14  2121.60  2123.94
                             2139.87  4652.78  4673.87  4685.74  4692.99
                             4697.59  4706.08  4709.25  4711.74  4718.61
                             4726.54  4731.49  4741.32  4744.04  4750.36
                             4780.40  4783.08  4832.99  4838.00  4844.51
                             4865.45  5598.06  5601.22

 Zero-point correction=                           0.371169 (Hartree/Particle)
 Thermal correction to Energy=                    0.390264
 Thermal correction to Enthalpy=                  0.391208
 Thermal correction to Gibbs Free Energy=         0.324803
 Sum of electronic and zero-point Energies=          -1297.613259
 Sum of electronic and thermal Energies=             -1297.594165
 Sum of electronic and thermal Enthalpies=           -1297.593220
 Sum of electronic and thermal Free Energies=        -1297.659625

                     E (Thermal)             CV                S
                      KCal/Mol        Cal/Mol-Kelvin    Cal/Mol-Kelvin
 Total                  244.894             78.064            139.760
 Electronic               0.000              0.000              0.000
 Translational            0.889              2.981             43.384
 Rotational               0.889              2.981             35.169
 Vibrational            243.117             72.102             61.207
 Vibration     1          0.595              1.978              4.889
 Vibration     2          0.597              1.972              4.391
 Vibration     3          0.599              1.966              4.017
 Vibration     4          0.602              1.956              3.643
 Vibration     5          0.605              1.945              3.357
 Vibration     6          0.613              1.919              2.885
 Vibration     7          0.621              1.894              2.579
 Vibration     8          0.626              1.878              2.425
 Vibration     9          0.632              1.859              2.266
 Vibration    10          0.645              1.817              1.993
 Vibration    11          0.653              1.791              1.860
 Vibration    12          0.670              1.741              1.643
 Vibration    13          0.680              1.710              1.532
 Vibration    14          0.688              1.686              1.455
 Vibration    15          0.696              1.664              1.388
 Vibration    16          0.697              1.660              1.376
 Vibration    17          0.700              1.652              1.355
 Vibration    18          0.705              1.639              1.319
 Vibration    19          0.722              1.590              1.200
 Vibration    20          0.733              1.559              1.132
 Vibration    21          0.747              1.520              1.054
 Vibration    22          0.765              1.473              0.968
 Vibration    23          0.775              1.446              0.922
 Vibration    24          0.790              1.408              0.864
 Vibration    25          0.793              1.401              0.853
 Vibration    26          0.836              1.296              0.712
 Vibration    27          0.842              1.280              0.693
 Vibration    28          0.864              1.231              0.637
 Vibration    29          0.882              1.191              0.595
 Vibration    30          0.918              1.113              0.520
 Vibration    31          0.938              1.073              0.484
 Vibration    32          0.945              1.058              0.471
 Vibration    33          0.965              1.018              0.439

 Normal termination of Gaussian 09 at Wed Mar 23 07:19:34 2016.
