 Gaussian 09, Revision B.01,
 Gaussian 09:  EM64L-G09RevB.01 12-Aug-2010

 ------------------------------------------------
 # freq=raman b3lyp/6-31+g(d,p) geom=connectivity
 ------------------------------------------------

 ------------
 320 9000.com
 ------------
 Symbolic Z-matrix:
 Charge =  0 Multiplicity = 1

                         Standard orientation:
 ---------------------------------------------------------------------
 Center     Atomic      Atomic             Coordinates (Angstroms)
 Number     Number       Type             X           Y           Z
 ---------------------------------------------------------------------
      1          8           0       -5.051408   -0.546532    0.272241
      2          6           0       -3.721492   -0.129718   -0.071289
      3          6           0       -3.258639    1.266283    0.311288
      4          8           0       -4.147720    2.303021   -0.129138
      5          1           0       -5.110249    2.063689   -0.005222
      6          6           0       -1.863915    1.602703   -0.191298
      7          8           0       -1.308609    2.839301    0.277605
      8          1           0       -0.312169    2.917367    0.229591
      9          6           0       -3.095105   -2.528182   -0.234850
     10          8           0       -4.125286   -3.274233    0.428612
     11          1           0       -3.976602   -4.244510    0.619776
     12          6           0       -2.714047   -1.182894    0.360376
     13          8           0       -1.507419   -0.738534   -0.276804
     14          6           0       -0.882586    0.486679    0.132826
     15          8           0        0.279182    0.556232   -0.707120
     16          6           0        1.546409    0.263127   -0.101481
     17          6           0        2.064160   -1.110943   -0.495848
     18          8           0        1.064067   -2.095013   -0.196143
     19          1           0        0.244256   -1.583240   -0.453058
     20          6           0        3.363191   -1.539499    0.166636
     21          8           0        3.732070   -2.812383   -0.383581
     22          1           0        4.517647   -3.170319    0.121359
     23          6           0        2.336847    2.645158    0.174749
     24          8           0        1.147090    3.314222   -0.268427
     25          1           0        1.273069    4.235444    0.097832
     26          6           0        2.679261    1.251199   -0.326180
     27          8           0        3.798495    0.769879    0.431709
     28          6           0        4.399303   -0.446441   -0.035277
     29          8           0        5.536151   -0.672425    0.810788
     30          1           0        6.299651   -0.887733    0.270132
     31          1           0        4.687578   -0.367311   -1.062670
     32          1           0        3.190600   -1.657431    1.216019
     33          1           0        2.220426   -1.110726   -1.554376
     34          1           0        1.374747    0.234491    0.954271
     35          1           0        2.931143    1.287986   -1.365460
     36          1           0        3.162755    3.278414   -0.073772
     37          1           0       -0.623366    0.470828    1.170830
     38          1           0       -1.924341    1.670630   -1.257429
     39          1           0       -5.529499   -0.781367   -0.526434
     40          1           0       -3.229076    1.306312    1.380130
     41          1           0       -3.699101   -0.140765   -1.140998
     42          1           0       -2.611323   -1.226761    1.424530
     43          1           0       -2.214969   -3.136190   -0.259085
     44          1           0       -3.409888   -2.361989   -1.243905
     45          1           0        2.285505    2.590059    1.242095
 ---------------------------------------------------------------------

 SCF Done:  E(RB3LYP) =  -1297.93187434     A.U. after   14 cycles

 The electronic state is 1-A.
 Alpha  occ. eigenvalues --  -19.20947 -19.19595 -19.19465 -19.19411 -19.18252
 Alpha  occ. eigenvalues --  -19.17333 -19.17004 -19.16375 -19.15650 -19.14696
 Alpha  occ. eigenvalues --  -19.12840 -10.31713 -10.31241 -10.27527 -10.26401
 Alpha  occ. eigenvalues --  -10.26179 -10.25591 -10.25154 -10.24778 -10.24550
 Alpha  occ. eigenvalues --  -10.24465 -10.24427 -10.24214  -1.10109  -1.09471
 Alpha  occ. eigenvalues --   -1.07136  -1.04943  -1.04107  -1.03668  -1.03134
 Alpha  occ. eigenvalues --   -1.01811  -1.01414  -1.00851  -0.99084  -0.82550
 Alpha  occ. eigenvalues --   -0.80158  -0.79602  -0.78480  -0.72474  -0.70178
 Alpha  occ. eigenvalues --   -0.67329  -0.65130  -0.63521  -0.62755  -0.61726
 Alpha  occ. eigenvalues --   -0.60203  -0.57015  -0.56279  -0.55436  -0.55189
 Alpha  occ. eigenvalues --   -0.54058  -0.53678  -0.53210  -0.51982  -0.51102
 Alpha  occ. eigenvalues --   -0.50873  -0.50454  -0.49566  -0.48756  -0.46943
 Alpha  occ. eigenvalues --   -0.46677  -0.45422  -0.44478  -0.43605  -0.43220
 Alpha  occ. eigenvalues --   -0.42767  -0.41522  -0.41194  -0.40121  -0.39780
 Alpha  occ. eigenvalues --   -0.38495  -0.38178  -0.37406  -0.35657  -0.35395
 Alpha  occ. eigenvalues --   -0.34642  -0.34609  -0.33989  -0.33766  -0.33541
 Alpha  occ. eigenvalues --   -0.33106  -0.32012  -0.31734  -0.30588  -0.29389
 Alpha  occ. eigenvalues --   -0.28893  -0.28595  -0.28449  -0.26736  -0.26539
 Alpha  occ. eigenvalues --   -0.25783
 Alpha virt. eigenvalues --   -0.02568  -0.02140  -0.01489  -0.00258   0.00219
 Alpha virt. eigenvalues --    0.00994   0.01870   0.02060   0.02622   0.03288
 Alpha virt. eigenvalues --    0.03819   0.04282   0.04759   0.05254   0.05601

 Mulliken atomic charges:
              1
     1  O   -0.518663
     2  C   -0.323630
     3  C    0.251916
     4  O   -0.519723
     5  H    0.358344
     6  C   -0.025375
     7  O   -0.591829
     8  H    0.471032
     9  C   -0.202369
    10  O   -0.580158
    11  H    0.376621
    12  C    0.356804
    13  O   -0.414790
    14  C    0.248891
    15  O   -0.305502
    16  C   -0.132151
    17  C   -0.045699
    18  O   -0.489322
    19  H    0.396222
    20  C    0.071293
    21  O   -0.509034
    22  H    0.348296
    23  C   -0.032364
    24  O   -0.589520
    25  H    0.384550
    26  C    0.006904
    27  O   -0.312091
    28  C    0.224956
    29  O   -0.547589
    30  H    0.360726
    31  H    0.128755
    32  H    0.152718
    33  H    0.140577
    34  H    0.122617
    35  H    0.140693
    36  H    0.140470
    37  H    0.124580
    38  H    0.142860
    39  H    0.372044
    40  H    0.126227
    41  H    0.127652
    42  H    0.137809
    43  H    0.144335
    44  H    0.128385
    45  H    0.153528
 Sum of Mulliken atomic charges =   0.00000

 Dipole moment (field-independent basis, Debye):
    X=              4.1382    Y=             -0.3244    Z=             -0.8759  Tot=              4.2423
 Quadrupole moment (field-independent basis, Debye-Ang):
   XX=           -118.7908   YY=           -135.6149   ZZ=           -139.8415
   XY=             14.0021   XZ=              0.5865   YZ=              0.0346

  Exact polarizability: 229.049  -0.781 194.174   1.129  -0.296 142.204
 Approx polarizability: 265.390   0.025 248.698   2.099  -1.986 232.312

 ******    7 imaginary frequencies (negative Signs) ******

                     1                      2                      3
                     A                      A                      A
 Frequencies --  -331.4027              -316.2400              -279.0167
 Red. masses --     1.1548                 1.1948                 1.7675
 Frc consts  --     0.0747                 0.0704                 0.0811
 IR Inten    --   119.3402               120.5092                 1.3262
 Raman Activ --     1.2100                 1.2002                 0.0294

                     4                      5                      6
                     A                      A                      A
 Frequencies --  -232.7727               -78.6263               -63.0565
 Red. masses --     1.7666                 7.0724                 6.5671
 Frc consts  --     0.0564                 0.0258                 0.0154
 IR Inten    --     9.3566                 1.7013                 2.4767
 Raman Activ --     0.2590                 0.0552                 0.0178

                     7                      8                      9
                     A                      A                      A
 Frequencies --   -60.7861                34.4805                49.6915
 Red. masses --     7.0554                 6.6014                 6.7018
 Frc consts  --     0.0154                 0.0046                 0.0098
 IR Inten    --     1.1202                 0.2631                 3.0974
 Raman Activ --     0.0958                 0.0164                 0.0412

                    10                     11                     12
                     A                      A                      A
 Frequencies --    66.2926                76.6022               127.3393
 Red. masses --     6.5316                 6.5773                 5.4475
 Frc consts  --     0.0169                 0.0227                 0.0520
 IR Inten    --     2.1111                 0.1818                 1.4584
 Raman Activ --     0.0618                 0.2928                 0.0420

                    13                     14                     15
                     A                      A                      A
 Frequencies --   159.2301               176.4496               185.5598
 Red. masses --     6.2247                 5.7461                 6.9495
 Frc consts  --     0.0930                 0.1054                 0.1410
 IR Inten    --     4.2349                 4.5549                 0.6756
 Raman Activ --     0.5567                 0.5538                 0.6059

                    16                     17                     18
                     A                      A                      A
 Frequencies --   217.0212               229.7584               254.1351
 Red. masses --     7.0307                 5.7059                 4.4820
 Frc consts  --     0.1951                 0.1775                 0.1705
 IR Inten    --     1.7091                 5.9880                29.3119
 Raman Activ --     3.0313                 0.3213                 0.2372

                    19                     20                     21
                     A                      A                      A
 Frequencies --   266.6553               275.1192               290.9186
 Red. masses --     4.7950                 5.2808                 4.7900
 Frc consts  --     0.2009                 0.2355                 0.2389
 IR Inten    --     0.5834                 2.0127                 3.8104
 Raman Activ --     0.2765                 0.2340                 0.2288

                    22                     23                     24
                     A                      A                      A
 Frequencies --   307.2011               310.4914               313.1247
 Red. masses --     4.9373                 6.4348                 6.3877
 Frc consts  --     0.2745                 0.3655                 0.3690
 IR Inten    --     4.6611                 5.1176                 0.1648
 Raman Activ --     0.8049                 5.1822                 1.7735

                    25                     26                     27
                     A                      A                      A
 Frequencies --   353.7533               366.2050               384.1922
 Red. masses --     6.2803                 5.8072                 5.9684
 Frc consts  --     0.4631                 0.4588                 0.5190
 IR Inten    --    12.2593                 4.2687                 3.9644
 Raman Activ --     1.4054                 1.9439                 0.4436

                    28                     29                     30
                     A                      A                      A
 Frequencies --   407.7232               413.7385               430.1874
 Red. masses --     5.6853                 4.4667                 5.3466
 Frc consts  --     0.5568                 0.4505                 0.5830
 IR Inten    --    15.2146                 3.7690                 3.6590
 Raman Activ --     2.8212                 6.2753                 3.4624

                    31                     32                     33
                     A                      A                      A
 Frequencies --   431.7753               464.8712               492.9709
 Red. masses --     4.2484                 3.9070                 4.1366
 Frc consts  --     0.4666                 0.4975                 0.5923
 IR Inten    --     8.4007                 9.4891                11.6189
 Raman Activ --     0.7656                 3.3816                 0.1925

                    34                     35                     36
                     A                      A                      A
 Frequencies --   516.7526               523.4685               561.3175
 Red. masses --     3.8570                 2.8293                 3.0975
 Frc consts  --     0.6068                 0.4568                 0.5750
 IR Inten    --    11.0147                15.3323                30.0218
 Raman Activ --     2.9941                 3.9983                 1.2619

                    37                     38                     39
                     A                      A                      A
 Frequencies --   575.9831               589.4400               590.4639
 Red. masses --     2.0887                 2.2113                 4.7259
 Frc consts  --     0.4083                 0.4527                 0.9708
 IR Inten    --    53.5014                37.4782                 6.0636
 Raman Activ --     1.1343                 0.7397                 0.8329

                    40                     41                     42
                     A                      A                      A
 Frequencies --   613.0238               625.0407               678.1983
 Red. masses --     3.5703                 3.1272                 4.1033
 Frc consts  --     0.7905                 0.7198                 1.1120
 IR Inten    --    38.5259                34.6715                12.1635
 Raman Activ --     0.9264                 1.1936                 1.1676

                    43                     44                     45
                     A                      A                      A
 Frequencies --   691.9292               718.1426               728.4318
 Red. masses --     1.0687                 1.0727                 1.1228
 Frc consts  --     0.3014                 0.3259                 0.3510
 IR Inten    --   102.8968                93.4144                 3.4933
 Raman Activ --     2.2412                 2.1210                 0.2729

                    46                     47                     48
                     A                      A                      A
 Frequencies --   787.5841               844.3912               847.7506
 Red. masses --     1.1326                 1.1784                 1.6247
 Frc consts  --     0.4139                 0.4950                 0.6879
 IR Inten    --   183.9740                81.0273                15.6694
 Raman Activ --     1.7017                 2.0104                 0.6925

                    49                     50                     51
                     A                      A                      A
 Frequencies --   877.0154               925.4476               952.6586
 Red. masses --     1.6729                 5.1280                 4.5972
 Frc consts  --     0.7581                 2.5876                 2.4582
 IR Inten    --    35.6172               144.6590                38.7592
 Raman Activ --     1.1991                 2.8878                 0.7048

                    52                     53                     54
                     A                      A                      A
 Frequencies --   980.7799               994.2955               998.6064
 Red. masses --     5.4858                 5.2980                 4.3732
 Frc consts  --     3.1091                 3.0860                 2.5695
 IR Inten    --    47.3740               230.8597                19.3979
 Raman Activ --     2.3507                 3.6601                 0.9273

                    55                     56                     57
                     A                      A                      A
 Frequencies --  1011.7179              1022.2547              1034.9262
 Red. masses --     6.9984                 5.7500                 5.1966
 Frc consts  --     4.2206                 3.5403                 3.2794
 IR Inten    --   310.1282                38.9175               103.6742
 Raman Activ --     1.1600                 3.5644                 2.9810

                    58                     59                     60
                     A                      A                      A
 Frequencies --  1048.3699              1056.5051              1068.8076
 Red. masses --     4.5828                 3.3699                 2.9656
 Frc consts  --     2.9676                 2.2162                 1.9960
 IR Inten    --   384.9243                25.4479                29.9224
 Raman Activ --     1.6573                15.3062                 1.4684

                    61                     62                     63
                     A                      A                      A
 Frequencies --  1076.8633              1082.9934              1090.0053
 Red. masses --     6.9344                 4.0156                 3.9995
 Frc consts  --     4.7378                 2.7749                 2.7997
 IR Inten    --   223.8859                61.1562                24.5920
 Raman Activ --     0.7509                 8.5416                 5.8588

                    64                     65                     66
                     A                      A                      A
 Frequencies --  1103.7699              1105.6938              1118.6458
 Red. masses --     2.0172                 3.8411                 2.2902
 Frc consts  --     1.4479                 2.7668                 1.6885
 IR Inten    --   115.2332                89.1824                23.8199
 Raman Activ --     1.9498                 8.2497                 8.4351

                    67                     68                     69
                     A                      A                      A
 Frequencies --  1119.4887              1128.7164              1132.2915
 Red. masses --     2.7280                 2.2100                 2.5668
 Frc consts  --     2.0143                 1.6589                 1.9389
 IR Inten    --    50.3481                 7.9327                21.2640
 Raman Activ --     2.7972                 4.2468                 1.6699

                    70                     71                     72
                     A                      A                      A
 Frequencies --  1138.0775              1147.9775              1153.6981
 Red. masses --     2.6853                 1.6731                 2.1789
 Frc consts  --     2.0492                 1.2991                 1.7087
 IR Inten    --     7.8229                 3.7012                51.0830
 Raman Activ --     4.2209                 5.1309                10.4050

                    73                     74                     75
                     A                      A                      A
 Frequencies --  1161.1854              1168.8030              1183.1824
 Red. masses --     1.4977                 1.9851                 2.4270
 Frc consts  --     1.1898                 1.5978                 2.0018
 IR Inten    --     6.9212                28.4662                10.7166
 Raman Activ --     4.2250                 2.3429                 3.3337

                    76                     77                     78
                     A                      A                      A
 Frequencies --  1200.6143              1203.9652              1226.6577
 Red. masses --     1.4829                 1.3822                 1.2583
 Frc consts  --     1.2595                 1.1805                 1.1156
 IR Inten    --     4.2975                23.4188                 4.0407
 Raman Activ --     2.3905                 3.9500                 5.0951

                    79                     80                     81
                     A                      A                      A
 Frequencies --  1235.5157              1238.6976              1244.8334
 Red. masses --     1.2676                 1.3220                 1.3284
 Frc consts  --     1.1400                 1.1951                 1.2129
 IR Inten    --     8.1976                 3.8853                26.8887
 Raman Activ --     0.8084                 3.1481                 1.1939

                    82                     83                     84
                     A                      A                      A
 Frequencies --  1263.9213              1275.8417              1286.2071
 Red. masses --     1.2011                 1.4548                 1.3692
 Frc consts  --     1.1305                 1.3953                 1.3346
 IR Inten    --    26.5666                 4.7158                19.5779
 Raman Activ --     1.6963                 2.1710                 1.1841

                    85                     86                     87
                     A                      A                      A
 Frequencies --  1289.7106              1295.4034              1309.3583
 Red. masses --     1.3155                 1.3076                 1.3014
 Frc consts  --     1.2892                 1.2928                 1.3146
 IR Inten    --    12.0595                 7.3378                67.8273
 Raman Activ --     2.5799                 3.6786                 4.6376

                    88                     89                     90
                     A                      A                      A
 Frequencies --  1313.4702              1322.1074              1324.3321
 Red. masses --     1.2185                 1.2351                 1.1880
 Frc consts  --     1.2386                 1.2720                 1.2276
 IR Inten    --     6.9973                 4.1008                50.6612
 Raman Activ --     6.0380                10.4649                 4.0757

                    91                     92                     93
                     A                      A                      A
 Frequencies --  1328.0879              1332.8627              1334.9359
 Red. masses --     1.2234                 1.3109                 1.3405
 Frc consts  --     1.2713                 1.3721                 1.4075
 IR Inten    --    11.5136                13.6303                21.5692
 Raman Activ --     2.3220                 6.1227                 3.1044

                    94                     95                     96
                     A                      A                      A
 Frequencies --  1355.7959              1365.1508              1367.8550
 Red. masses --     1.2940                 1.6590                 1.5271
 Frc consts  --     1.4015                 1.8216                 1.6835
 IR Inten    --    28.7730                 2.0155                47.7924
 Raman Activ --     0.9801                 7.8657                 4.8289

                    97                     98                     99
                     A                      A                      A
 Frequencies --  1376.4340              1388.3764              1400.6891
 Red. masses --     1.6517                 1.4299                 1.4224
 Frc consts  --     1.8437                 1.6239                 1.6442
 IR Inten    --    11.4906                13.9257                 8.1270
 Raman Activ --    11.1025                 1.2930                 0.6504

                   100                    101                    102
                     A                      A                      A
 Frequencies --  1412.2749              1417.8102              1428.9098
 Red. masses --     1.3202                 1.4889                 1.2850
 Frc consts  --     1.5514                 1.7634                 1.5459
 IR Inten    --    10.4610                17.3299                 5.4942
 Raman Activ --     6.7574                 4.8390                 3.1225

                   103                    104                    105
                     A                      A                      A
 Frequencies --  1457.2170              1474.3672              1486.3209
 Red. masses --     1.3923                 1.0805                 1.0723
 Frc consts  --     1.7420                 1.3839                 1.3957
 IR Inten    --    30.4601                 5.4565                 4.0201
 Raman Activ --     0.7032                 4.3042                 5.7504

                   106                    107                    108
                     A                      A                      A
 Frequencies --  1509.1955              1526.5296              3222.2293
 Red. masses --     1.2723                 1.2716                 1.0712
 Frc consts  --     1.7073                 1.7458                 6.5531
 IR Inten    --    26.2425                70.7552              1305.6593
 Raman Activ --     0.7995                 2.0597               191.7282

                   109                    110                    111
                     A                      A                      A
 Frequencies --  3269.6686              3273.1228              3274.4928
 Red. masses --     1.0645                 1.0596                 1.0746
 Frc consts  --     6.7048                 6.6884                 6.7884
 IR Inten    --    16.4967                 8.0517                18.5563
 Raman Activ --    15.9602               193.2560               144.3025

                   112                    113                    114
                     A                      A                      A
 Frequencies --  3280.7630              3284.4922              3286.2657
 Red. masses --     1.0817                 1.0839                 1.0840
 Frc consts  --     6.8595                 6.8892                 6.8975
 IR Inten    --    15.6599                22.1935                 5.5143
 Raman Activ --    97.7125                 2.8771                10.9259

                   115                    116                    117
                     A                      A                      A
 Frequencies --  3297.9305              3300.0283              3300.7200
 Red. masses --     1.0865                 1.0853                 1.0855
 Frc consts  --     6.9622                 6.9634                 6.9679
 IR Inten    --    19.0058                 3.4438                15.8241
 Raman Activ --    72.8621                46.0588               146.1838

                   118                    119                    120
                     A                      A                      A
 Frequencies --  3308.9554              3312.6530              3315.6074
 Red. masses --     1.0866                 1.0866                 1.0872
 Frc consts  --     7.0098                 7.0252                 7.0416
 IR Inten    --     4.4218                68.3645                74.9975
 Raman Activ --    24.4356                37.4883                 5.8760

                   121                    122                    123
                     A                      A                      A
 Frequencies --  3326.6144              3330.6649              3346.3818
 Red. masses --     1.1052                 1.1051                 1.0667
 Frc consts  --     7.2059                 7.2227                 7.0376
 IR Inten    --    54.9732                38.9983               447.3190
 Raman Activ --    58.8422                18.8526               141.9412

                   124                    125                    126
                     A                      A                      A
 Frequencies --  3387.8384              3389.8542              3396.4579
 Red. masses --     1.0709                 1.0665                 1.0668
 Frc consts  --     7.2416                 7.2203                 7.2509
 IR Inten    --    52.3751                31.5631                36.6554
 Raman Activ --   173.1256               162.5278               144.2280

                   127                    128                    129
                     A                      A                      A
 Frequencies --  3407.0177              3915.5999              3922.7284
 Red. masses --     1.0657                 1.0680                 1.0675
 Frc consts  --     7.2884                 9.6477                 9.6786
 IR Inten    --    70.8033                72.2270                77.0747
 Raman Activ --   110.3079                78.6308               117.3626

 - Thermochemistry -
 -------------------
 Temperature   298.150 Kelvin.  Pressure   1.00000 Atm.
 Atom     1 has atomic number  8 and mass  15.99491

 Molecular mass:   342.11621 amu.
 Principal axes and moments of inertia in atomic units:
                           1         2         3
     Eigenvalues --  4495.73835********************
           X            0.99997   0.00752   0.00019
           Y           -0.00752   0.99997   0.00254
           Z           -0.00017  -0.00254   1.00000
 This molecule is an asymmetric top.
 Rotational symmetry number  1.
 Warning -- assumption of classical behavior for rotation
           may cause significant error
 Rotational temperatures (Kelvin)      0.01927     0.00700     0.00527
 Rotational constants (GHZ):           0.40143     0.14591     0.10990
    7 imaginary frequencies ignored.
 Zero-point vibrational energy     974978.7 (Joules/Mol)
                                  233.02551 (Kcal/Mol)
 Warning -- explicit consideration of  33 degrees of freedom as
           vibrations may cause significant error
 Vibrational temperatures:     49.61    71.49    95.38   110.21   183.21
          (Kelvin)            229.10   253.87   266.98   312.24   330.57
                              365.64   383.66   395.83   418.57   441.99
                              446.73   450.52   508.97   526.89   552.77
                              586.62   595.28   618.94   621.23   668.85
                              709.27   743.49   753.15   807.61   828.71
                              848.07   849.54   882.00   899.29   975.77
                              995.53  1033.25  1048.05  1133.16  1214.89
                             1219.72  1261.83  1331.51  1370.66  1411.12
                             1430.57  1436.77  1455.63  1470.79  1489.03
                             1508.37  1520.07  1537.77  1549.36  1558.18
                             1568.27  1588.08  1590.84  1609.48  1610.69
                             1623.97  1629.11  1637.44  1651.68  1659.91
                             1670.68  1681.64  1702.33  1727.41  1732.24
                             1764.88  1777.63  1782.21  1791.04  1818.50
                             1835.65  1850.56  1855.60  1863.79  1883.87
                             1889.79  1902.22  1905.42  1910.82  1917.69
                             1920.67  1950.69  1964.15  1968.04  1980.38
                             1997.56  2015.28  2031.95  2039.91  2055.88
                             2096.61  2121.28  2138.48  2171.39  2196.33
                             4636.06  4704.32  4709.29  4711.26  4720.28
                             4725.65  4728.20  4744.98  4748.00  4748.99
                             4760.84  4766.16  4770.41  4786.25  4792.08
                             4814.69  4874.34  4877.24  4886.74  4901.93
                             5633.67  5643.92

 Zero-point correction=                           0.371350 (Hartree/Particle)
 Thermal correction to Energy=                    0.389905
 Thermal correction to Enthalpy=                  0.390849
 Thermal correction to Gibbs Free Energy=         0.325061
 Sum of electronic and zero-point Energies=          -1297.560525
 Sum of electronic and thermal Energies=             -1297.541970
 Sum of electronic and thermal Enthalpies=           -1297.541026
 Sum of electronic and thermal Free Energies=        -1297.606814

                     E (Thermal)             CV                S
                      KCal/Mol        Cal/Mol-Kelvin    Cal/Mol-Kelvin
 Total                  244.669             76.334            138.463
 Electronic               0.000              0.000              0.000
 Translational            0.889              2.981             43.384
 Rotational               0.889              2.981             35.167
 Vibrational            242.891             70.373             59.912
 Vibration     1          0.594              1.983              5.553
 Vibration     2          0.595              1.978              4.830
 Vibration     3          0.598              1.970              4.261
 Vibration     4          0.599              1.965              3.976
 Vibration     5          0.611              1.926              2.986
 Vibration     6          0.621              1.892              2.559
 Vibration     7          0.628              1.871              2.366
 Vibration     8          0.632              1.860              2.272
 Vibration     9          0.646              1.815              1.984
 Vibration    10          0.652              1.796              1.881
 Vibration    11          0.665              1.756              1.702
 Vibration    12          0.672              1.734              1.618
 Vibration    13          0.677              1.719              1.564
 Vibration    14          0.687              1.691              1.469
 Vibration    15          0.697              1.660              1.377
 Vibration    16          0.699              1.654              1.360
 Vibration    17          0.701              1.649              1.346
 Vibration    18          0.730              1.568              1.149
 Vibration    19          0.739              1.542              1.096
 Vibration    20          0.753              1.504              1.023
 Vibration    21          0.772              1.453              0.935
 Vibration    22          0.777              1.440              0.914
 Vibration    23          0.791              1.405              0.858
 Vibration    24          0.793              1.401              0.853
 Vibration    25          0.822              1.328              0.752
 Vibration    26          0.849              1.266              0.676
 Vibration    27          0.872              1.213              0.618
 Vibration    28          0.878              1.198              0.602
 Vibration    29          0.917              1.115              0.521
 Vibration    30          0.932              1.083              0.493
 Vibration    31          0.947              1.054              0.468
 Vibration    32          0.948              1.052              0.466
 Vibration    33          0.972              1.004              0.428

 Normal termination of Gaussian 09 at Thu Jan 21 04:58:19 2016.
