 Gaussian 09, Revision B.01,
 Gaussian 09:  EM64L-G09RevB.01 12-Aug-2010

 -------------------------------------------------
 # freq=raman b3lyp/6-31+g(2d,p) geom=connectivity
 -------------------------------------------------

 -----------------
 493 5855/5855.com
 -----------------
 Symbolic Z-matrix:
 Charge =  0 Multiplicity = 1

                         Standard orientation:
 ---------------------------------------------------------------------
 Center     Atomic      Atomic             Coordinates (Angstroms)
 Number     Number       Type             X           Y           Z
 ---------------------------------------------------------------------
      1          8           0        5.029797   -0.428568   -0.374797
      2          6           0        3.774176   -0.104189    0.239868
      3          6           0        3.269455    1.191771   -0.374074
      4          8           0        4.177705    2.265591   -0.092005
      5          1           0        5.040206    2.178894   -0.589983
      6          6           0        1.905282    1.515807    0.214260
      7          8           0        1.436290    2.808528   -0.195685
      8          1           0        0.484851    2.939477    0.083173
      9          6           0        3.039815   -2.590459    0.270559
     10          8           0        4.063626   -3.262031   -0.476931
     11          1           0        3.845965   -4.228566   -0.613118
     12          6           0        2.685649   -1.137170    0.000465
     13          8           0        1.391632   -0.810723    0.528357
     14          6           0        0.872449    0.420738    0.005940
     15          8           0       -0.378080    0.589559    0.687849
     16          6           0       -1.542315    0.199387   -0.055907
     17          6           0       -1.938558   -1.190060    0.415033
     18          8           0       -0.945700   -2.133187   -0.014581
     19          1           0       -0.119843   -1.988858    0.529109
     20          6           0       -3.322694   -1.487721   -0.136976
     21          8           0       -3.960902   -2.753435    0.091378
     22          1           0       -4.908211   -2.819459   -0.222735
     23          6           0       -2.285611    2.598562   -0.222462
     24          8           0       -1.129672    3.335311    0.201322
     25          1           0       -1.395788    4.296673    0.130255
     26          6           0       -2.629973    1.206080    0.281873
     27          8           0       -3.895929    0.895200   -0.319286
     28          6           0       -4.342460   -0.392657    0.128339
     29          8           0       -5.525013   -0.578161   -0.662499
     30          1           0       -6.272993   -0.747082   -0.084924
     31          1           0       -4.592378   -0.358833    1.168193
     32          1           0       -3.178447   -1.462758   -1.196915
     33          1           0       -1.982631   -1.195367    1.484112
     34          1           0       -1.337981    0.200064   -1.106215
     35          1           0       -2.750243    1.241896    1.344489
     36          1           0       -3.132003    3.215341   -0.003137
     37          1           0       -2.220764    2.524657   -1.287935
     38          1           0        5.664521   -0.671913    0.303074
     39          1           0        2.141155   -3.157374    0.144395
     40          1           0        3.315481   -2.655982    1.302361
     41          1           0        2.543048   -1.105051   -1.059504
     42          1           0        3.915033    0.029669    1.292076
     43          1           0        3.179821    1.071534   -1.433512
     44          1           0        2.051849    1.580052    1.272226
     45          1           0        0.688021    0.307773   -1.041975
 ---------------------------------------------------------------------

 SCF Done:  E(RB3LYP) =  -1297.97728970     A.U. after   13 cycles

 The electronic state is 1-A.
 Alpha  occ. eigenvalues --  -19.18909 -19.18367 -19.18261 -19.18239 -19.18211
 Alpha  occ. eigenvalues --  -19.16369 -19.16024 -19.15804 -19.14636 -19.14607
 Alpha  occ. eigenvalues --  -19.12466 -10.30957 -10.30382 -10.26160 -10.25663
 Alpha  occ. eigenvalues --  -10.25251 -10.25114 -10.25028 -10.25002 -10.24545
 Alpha  occ. eigenvalues --  -10.24148 -10.24084 -10.23751  -1.10019  -1.09452
 Alpha  occ. eigenvalues --   -1.05754  -1.04797  -1.03907  -1.03540  -1.02427
 Alpha  occ. eigenvalues --   -1.02246  -1.01348  -1.01060  -0.99154  -0.82347
 Alpha  occ. eigenvalues --   -0.80380  -0.79710  -0.78101  -0.71765  -0.69838
 Alpha  occ. eigenvalues --   -0.67392  -0.64900  -0.63542  -0.62377  -0.61604
 Alpha  occ. eigenvalues --   -0.60096  -0.56704  -0.55683  -0.54956  -0.54855
 Alpha  occ. eigenvalues --   -0.53828  -0.53328  -0.53174  -0.52309  -0.50955
 Alpha  occ. eigenvalues --   -0.50753  -0.50214  -0.49175  -0.48252  -0.46590
 Alpha  occ. eigenvalues --   -0.46120  -0.45129  -0.44761  -0.43498  -0.43347
 Alpha  occ. eigenvalues --   -0.42369  -0.41883  -0.40939  -0.40038  -0.39777
 Alpha  occ. eigenvalues --   -0.38975  -0.37843  -0.37442  -0.36285  -0.35010
 Alpha  occ. eigenvalues --   -0.34826  -0.34493  -0.34107  -0.33597  -0.33392
 Alpha  occ. eigenvalues --   -0.32671  -0.31609  -0.30934  -0.30106  -0.29772
 Alpha  occ. eigenvalues --   -0.28871  -0.28472  -0.28163  -0.27207  -0.26669
 Alpha  occ. eigenvalues --   -0.25902
 Alpha virt. eigenvalues --   -0.02152  -0.02062  -0.01469   0.00016   0.00283
 Alpha virt. eigenvalues --    0.00895   0.01873   0.01928   0.03080   0.03451
 Alpha virt. eigenvalues --    0.03584   0.04249   0.05031   0.05214   0.05514

 Mulliken atomic charges:
              1
     1  O   -0.534453
     2  C   -0.079334
     3  C    0.192423
     4  O   -0.545646
     5  H    0.342749
     6  C   -0.215395
     7  O   -0.587778
     8  H    0.424753
     9  C   -0.299359
    10  O   -0.516165
    11  H    0.343775
    12  C    0.343580
    13  O   -0.290447
    14  C    0.178267
    15  O   -0.215125
    16  C    0.402004
    17  C    0.133353
    18  O   -0.524214
    19  H    0.361709
    20  C    0.042000
    21  O   -0.575588
    22  H    0.345832
    23  C   -0.293382
    24  O   -0.553838
    25  H    0.359204
    26  C   -0.040859
    27  O   -0.239630
    28  C    0.134336
    29  O   -0.538595
    30  H    0.337457
    31  H    0.125924
    32  H    0.125884
    33  H    0.122838
    34  H    0.119857
    35  H    0.122071
    36  H    0.143130
    37  H    0.157471
    38  H    0.335950
    39  H    0.138742
    40  H    0.138942
    41  H    0.107584
    42  H    0.115787
    43  H    0.119953
    44  H    0.117994
    45  H    0.116239
 Sum of Mulliken atomic charges =   0.00000

 Dipole moment (field-independent basis, Debye):
    X=             -2.9460    Y=             -0.0959    Z=              2.0131  Tot=              3.5694
 Quadrupole moment (field-independent basis, Debye-Ang):
   XX=           -117.5254   YY=           -136.3860   ZZ=           -138.5589
   XY=            -14.8675   XZ=             -3.1377   YZ=             -2.0114

  Exact polarizability: 235.806   2.026 197.329  -0.209  -0.840 144.070
 Approx polarizability: 277.126   1.813 255.853  -0.020   0.017 240.761

 ******    7 imaginary frequencies (negative Signs) ******

                     1                      2                      3
                     A                      A                      A
 Frequencies --  -319.5020              -293.0640              -245.8309
 Red. masses --     1.6088                 1.7164                 1.1278
 Frc consts  --     0.0968                 0.0869                 0.0402
 IR Inten    --    10.3695                 1.1367                92.2706
 Raman Activ --     0.1900                 0.0242                 0.7404

                     4                      5                      6
                     A                      A                      A
 Frequencies --  -177.3036               -75.8363               -60.2911
 Red. masses --     1.2338                 7.3503                 6.6539
 Frc consts  --     0.0229                 0.0249                 0.0143
 IR Inten    --   110.8561                 1.9852                 0.5116
 Raman Activ --     0.7515                 0.0454                 0.0249

                     7                      8                      9
                     A                      A                      A
 Frequencies --   -37.0518                27.9510                73.7522
 Red. masses --     6.3008                 6.7166                 7.1663
 Frc consts  --     0.0051                 0.0031                 0.0230
 IR Inten    --     1.1387                 0.4650                 0.5678
 Raman Activ --     0.0088                 0.0579                 0.1344

                    10                     11                     12
                     A                      A                      A
 Frequencies --    91.5475               100.7971               114.0715
 Red. masses --     6.7495                 6.1408                 5.8207
 Frc consts  --     0.0333                 0.0368                 0.0446
 IR Inten    --     1.1244                 2.1169                 1.8575
 Raman Activ --     0.0937                 0.2028                 0.0782

                    13                     14                     15
                     A                      A                      A
 Frequencies --   163.3148               180.0245               184.7891
 Red. masses --     6.3002                 7.7049                 5.5666
 Frc consts  --     0.0990                 0.1471                 0.1120
 IR Inten    --     2.2696                 2.2242                 1.1951
 Raman Activ --     0.5059                 0.7506                 0.1527

                    16                     17                     18
                     A                      A                      A
 Frequencies --   213.1082               234.1956               261.2612
 Red. masses --     7.3466                 5.9451                 4.6243
 Frc consts  --     0.1966                 0.1921                 0.1860
 IR Inten    --     0.3540                 1.3224                23.8261
 Raman Activ --     3.2707                 0.3334                 0.1138

                    19                     20                     21
                     A                      A                      A
 Frequencies --   279.4830               293.3935               298.6662
 Red. masses --     4.9239                 4.9812                 4.8879
 Frc consts  --     0.2266                 0.2526                 0.2569
 IR Inten    --     0.7086                 4.7562                 5.4435
 Raman Activ --     0.2685                 0.3958                 0.1370

                    22                     23                     24
                     A                      A                      A
 Frequencies --   308.2139               313.7163               327.0382
 Red. masses --     6.0010                 6.8168                 4.7263
 Frc consts  --     0.3359                 0.3953                 0.2978
 IR Inten    --     2.7415                 3.1503                 7.3152
 Raman Activ --     1.7545                 5.0347                 0.6731

                    25                     26                     27
                     A                      A                      A
 Frequencies --   347.3896               357.2016               376.5064
 Red. masses --     6.2456                 5.0484                 6.7629
 Frc consts  --     0.4441                 0.3795                 0.5648
 IR Inten    --    10.5959                 2.8497                 2.4358
 Raman Activ --     2.3031                 0.4653                 1.4115

                    28                     29                     30
                     A                      A                      A
 Frequencies --   404.9932               418.7484               429.6894
 Red. masses --     4.4807                 5.0231                 5.7819
 Frc consts  --     0.4330                 0.5190                 0.6290
 IR Inten    --    16.9919                 2.2672                 5.0988
 Raman Activ --     1.8929                 6.0243                 4.5799

                    31                     32                     33
                     A                      A                      A
 Frequencies --   433.5751               477.7517               481.1058
 Red. masses --     5.3574                 5.4978                 3.8958
 Frc consts  --     0.5934                 0.7393                 0.5313
 IR Inten    --     4.0112                 3.6615                13.5063
 Raman Activ --     3.6143                 1.3441                 1.8832

                    34                     35                     36
                     A                      A                      A
 Frequencies --   506.8830               517.2311               564.2845
 Red. masses --     3.7838                 3.2911                 4.0891
 Frc consts  --     0.5728                 0.5188                 0.7671
 IR Inten    --    10.5424                10.9004                 5.3070
 Raman Activ --     3.0509                 3.7672                 1.4462

                    37                     38                     39
                     A                      A                      A
 Frequencies --   580.1096               589.7676               611.5154
 Red. masses --     2.9177                 6.0649                 5.0049
 Frc consts  --     0.5785                 1.2429                 1.1027
 IR Inten    --    62.4027                 9.9387                12.9741
 Raman Activ --     0.6416                 0.5343                 0.6476

                    40                     41                     42
                     A                      A                      A
 Frequencies --   622.6210               657.9475               670.4800
 Red. masses --     3.5984                 1.1635                 1.0547
 Frc consts  --     0.8219                 0.2968                 0.2793
 IR Inten    --    24.4982               102.2932                79.8386
 Raman Activ --     1.3705                 1.6895                 2.1242

                    43                     44                     45
                     A                      A                      A
 Frequencies --   679.0905               684.9413               704.0222
 Red. masses --     1.2063                 3.1071                 1.0823
 Frc consts  --     0.3278                 0.8588                 0.3161
 IR Inten    --   104.7447                16.4629               109.0300
 Raman Activ --     1.5544                 1.2543                 1.8184

                    46                     47                     48
                     A                      A                      A
 Frequencies --   723.6537               810.5983               841.3503
 Red. masses --     1.0950                 1.0705                 1.8354
 Frc consts  --     0.3378                 0.4144                 0.7655
 IR Inten    --   197.6215                67.8404                 4.2569
 Raman Activ --     4.3707                 0.8219                 0.7865

                    49                     50                     51
                     A                      A                      A
 Frequencies --   854.9230               926.3057               959.7651
 Red. masses --     1.6772                 6.2728                 6.1425
 Frc consts  --     0.7222                 3.1712                 3.3337
 IR Inten    --     1.4513               128.4745                30.8715
 Raman Activ --     0.3229                 3.0576                 0.9791

                    52                     53                     54
                     A                      A                      A
 Frequencies --   967.0083               981.4578               985.7358
 Red. masses --     4.5812                 7.1983                 4.9141
 Frc consts  --     2.5240                 4.0853                 2.8133
 IR Inten    --    32.8596               412.5879                45.8389
 Raman Activ --     1.5362                 0.5190                 0.9358

                    55                     56                     57
                     A                      A                      A
 Frequencies --   994.9743              1007.2478              1018.9899
 Red. masses --     6.9124                 6.1445                 6.3341
 Frc consts  --     4.0318                 3.6729                 3.8750
 IR Inten    --    99.9383                60.1684               202.8651
 Raman Activ --     1.7937                 3.8335                 2.9242

                    58                     59                     60
                     A                      A                      A
 Frequencies --  1025.1624              1055.1768              1059.9864
 Red. masses --     6.4485                 5.9734                 4.5102
 Frc consts  --     3.9930                 3.9185                 2.9857
 IR Inten    --   256.6273               216.7655                52.0091
 Raman Activ --     1.1892                 2.4629                 3.7398

                    61                     62                     63
                     A                      A                      A
 Frequencies --  1065.0159              1069.5776              1077.9162
 Red. masses --     3.8995                 3.6758                 3.4185
 Frc consts  --     2.6060                 2.4776                 2.3402
 IR Inten    --    17.2950                 3.7423                 8.5091
 Raman Activ --     3.9311                 3.8295                18.2269

                    64                     65                     66
                     A                      A                      A
 Frequencies --  1094.3123              1105.3802              1116.4843
 Red. masses --     3.1873                 2.7469                 3.2590
 Frc consts  --     2.2488                 1.9775                 2.3936
 IR Inten    --    20.6315                 2.4420                34.0346
 Raman Activ --    10.7500                 1.8992                 5.6569

                    67                     68                     69
                     A                      A                      A
 Frequencies --  1120.7236              1125.8736              1132.5370
 Red. masses --     3.2786                 2.2911                 2.4263
 Frc consts  --     2.4263                 1.7111                 1.8336
 IR Inten    --    19.1363               150.0215                41.2601
 Raman Activ --    11.1130                 3.7033                 7.5652

                    70                     71                     72
                     A                      A                      A
 Frequencies --  1144.8601              1155.3675              1161.1536
 Red. masses --     2.8458                 2.2131                 1.8061
 Frc consts  --     2.1976                 1.7405                 1.4347
 IR Inten    --    27.2394                 6.5732                 4.0420
 Raman Activ --     4.4845                 3.6495                 4.8960

                    73                     74                     75
                     A                      A                      A
 Frequencies --  1166.1530              1173.5731              1201.6673
 Red. masses --     1.6128                 1.9937                 1.4034
 Frc consts  --     1.2922                 1.6178                 1.1940
 IR Inten    --    15.1821                19.3867                28.4730
 Raman Activ --     1.2221                 1.7213                 4.1451

                    76                     77                     78
                     A                      A                      A
 Frequencies --  1205.4790              1213.8129              1233.4303
 Red. masses --     1.7621                 1.2810                 1.3202
 Frc consts  --     1.5087                 1.1120                 1.1834
 IR Inten    --     5.8483                10.3836                 4.2879
 Raman Activ --     0.8618                 0.4261                 1.7011

                    79                     80                     81
                     A                      A                      A
 Frequencies --  1236.6265              1252.3393              1259.3737
 Red. masses --     1.3022                 1.3041                 1.2569
 Frc consts  --     1.1733                 1.2051                 1.1745
 IR Inten    --    19.7264                 6.1490                10.0445
 Raman Activ --     1.0997                 0.6671                 2.8569

                    82                     83                     84
                     A                      A                      A
 Frequencies --  1282.1515              1289.3138              1294.5633
 Red. masses --     1.2685                 1.3633                 1.2542
 Frc consts  --     1.2286                 1.3352                 1.2384
 IR Inten    --    13.2100                24.6319                15.3961
 Raman Activ --     1.5878                 2.9424                 2.9699

                    85                     86                     87
                     A                      A                      A
 Frequencies --  1298.8096              1303.9464              1310.1304
 Red. masses --     1.2580                 1.2756                 1.1432
 Frc consts  --     1.2503                 1.2779                 1.1561
 IR Inten    --     4.7447                39.3506                 2.2106
 Raman Activ --     1.6088                 6.2081                 6.7500

                    88                     89                     90
                     A                      A                      A
 Frequencies --  1321.8513              1328.5997              1333.5118
 Red. masses --     1.3579                 1.3216                 1.2236
 Frc consts  --     1.3979                 1.3745                 1.2819
 IR Inten    --    11.2951                28.3396                18.6040
 Raman Activ --     9.3116                 2.0678                12.2548

                    91                     92                     93
                     A                      A                      A
 Frequencies --  1343.5031              1343.7275              1360.6316
 Red. masses --     1.2901                 1.3316                 1.1694
 Frc consts  --     1.3720                 1.4166                 1.2755
 IR Inten    --    29.8259                11.8329                42.0516
 Raman Activ --     1.3958                 0.9342                 3.8078

                    94                     95                     96
                     A                      A                      A
 Frequencies --  1364.1275              1375.1854              1384.9091
 Red. masses --     1.3057                 1.3868                 1.3329
 Frc consts  --     1.4315                 1.5452                 1.5063
 IR Inten    --    17.8406                12.8986                17.5667
 Raman Activ --     4.2378                 3.9131                 8.6309

                    97                     98                     99
                     A                      A                      A
 Frequencies --  1388.6958              1398.8227              1401.5121
 Red. masses --     1.3252                 1.3936                 1.4277
 Frc consts  --     1.5057                 1.6067                 1.6523
 IR Inten    --    20.5559                 3.7311                 3.2550
 Raman Activ --     1.2426                 4.3747                 5.6631

                   100                    101                    102
                     A                      A                      A
 Frequencies --  1410.2627              1411.3073              1446.7158
 Red. masses --     1.4236                 1.4001                 1.3837
 Frc consts  --     1.6682                 1.6430                 1.7063
 IR Inten    --    29.3925                 5.8340                19.7184
 Raman Activ --     2.0556                 2.6092                 1.6803

                   103                    104                    105
                     A                      A                      A
 Frequencies --  1463.8063              1471.6133              1478.6337
 Red. masses --     1.0912                 1.0740                 1.3616
 Frc consts  --     1.3775                 1.3704                 1.7540
 IR Inten    --     4.7254                 7.3380                36.4572
 Raman Activ --     3.1015                 4.9529                 0.2535

                   106                    107                    108
                     A                      A                      A
 Frequencies --  1485.0803              1506.4524              3245.7503
 Red. masses --     1.2791                 1.2554                 1.0722
 Frc consts  --     1.6621                 1.6785                 6.6549
 IR Inten    --    17.1410                41.1129                 2.8087
 Raman Activ --     2.8616                 1.0406                99.8691

                   109                    110                    111
                     A                      A                      A
 Frequencies --  3249.0900              3255.4235              3261.8288
 Red. masses --     1.0677                 1.0662                 1.0653
 Frc consts  --     6.6411                 6.6577                 6.6782
 IR Inten    --   698.9179                78.1772                48.2497
 Raman Activ --    96.2646                28.7361               182.6454

                   112                    113                    114
                     A                      A                      A
 Frequencies --  3262.5935              3269.4366              3274.6637
 Red. masses --     1.0794                 1.0767                 1.0835
 Frc consts  --     6.7695                 6.7811                 6.8454
 IR Inten    --     5.2920               152.1317                 7.8546
 Raman Activ --   162.6812                58.6678                78.6660

                   115                    116                    117
                     A                      A                      A
 Frequencies --  3277.6509              3278.7064              3282.7163
 Red. masses --     1.0837                 1.0842                 1.0854
 Frc consts  --     6.8591                 6.8673                 6.8917
 IR Inten    --    19.7254                 9.4004                 9.1294
 Raman Activ --    37.7858                 4.1321                55.4134

                   118                    119                    120
                     A                      A                      A
 Frequencies --  3288.2691              3297.3835              3302.2276
 Red. masses --     1.0858                 1.0882                 1.0894
 Frc consts  --     6.9174                 6.9710                 6.9991
 IR Inten    --    44.7317                41.4822                33.4434
 Raman Activ --   117.7764                 7.2350                10.7112

                   121                    122                    123
                     A                      A                      A
 Frequencies --  3304.8346              3312.5617              3341.1247
 Red. masses --     1.1024                 1.1019                 1.0667
 Frc consts  --     7.0941                 7.1237                 7.0161
 IR Inten    --    75.6546                74.1174               425.6790
 Raman Activ --    37.7403                26.7738               140.1304

                   124                    125                    126
                     A                      A                      A
 Frequencies --  3365.9145              3368.9017              3372.6820
 Red. masses --     1.0664                 1.0691                 1.0676
 Frc consts  --     7.1185                 7.1489                 7.1548
 IR Inten    --    55.2899                52.6355                60.2576
 Raman Activ --   136.6875               144.3287               155.9713

                   127                    128                    129
                     A                      A                      A
 Frequencies --  3378.7230              3889.7265              3890.9146
 Red. masses --     1.0668                 1.0675                 1.0674
 Frc consts  --     7.1750                 9.5163                 9.5214
 IR Inten    --    49.8337                78.8774                69.9185
 Raman Activ --   143.4213                88.7038               122.6964

 - Thermochemistry -
 -------------------
 Temperature   298.150 Kelvin.  Pressure   1.00000 Atm.
 Atom     1 has atomic number  8 and mass  15.99491

 Molecular mass:   342.11621 amu.
 Principal axes and moments of inertia in atomic units:
                           1         2         3
     Eigenvalues --  4422.74967********************
           X            0.99997  -0.00756  -0.00049
           Y            0.00756   0.99997  -0.00286
           Z            0.00051   0.00286   1.00000
 This molecule is an asymmetric top.
 Rotational symmetry number  1.
 Warning -- assumption of classical behavior for rotation
           may cause significant error
 Rotational temperatures (Kelvin)      0.01958     0.00700     0.00528
 Rotational constants (GHZ):           0.40806     0.14581     0.11006
    7 imaginary frequencies ignored.
 Zero-point vibrational energy     973007.5 (Joules/Mol)
                                  232.55438 (Kcal/Mol)
 Warning -- explicit consideration of  32 degrees of freedom as
           vibrations may cause significant error
 Vibrational temperatures:     40.22   106.11   131.72   145.02   164.12
          (Kelvin)            234.97   259.01   265.87   306.61   336.95
                              375.90   402.11   422.13   429.71   443.45
                              451.37   470.53   499.82   513.93   541.71
                              582.69   602.48   618.23   623.82   687.38
                              692.20   729.29   744.18   811.88   834.65
                              848.54   879.83   895.81   946.64   964.67
                              977.06   985.48  1012.93  1041.17  1166.27
                             1210.51  1230.04  1332.75  1380.89  1391.31
                             1412.10  1418.25  1431.54  1449.20  1466.10
                             1474.98  1518.16  1525.08  1532.32  1538.88
                             1550.88  1574.47  1590.39  1606.37  1612.47
                             1619.88  1629.47  1647.20  1662.31  1670.64
                             1677.83  1688.51  1728.93  1734.41  1746.40
                             1774.63  1779.23  1801.83  1811.96  1844.73
                             1855.03  1862.59  1868.69  1876.09  1884.98
                             1901.85  1911.56  1918.62  1933.00  1933.32
                             1957.64  1962.67  1978.58  1992.57  1998.02
                             2012.59  2016.46  2029.05  2030.55  2081.50
                             2106.09  2117.32  2127.42  2136.70  2167.45
                             4669.90  4674.71  4683.82  4693.04  4694.14
                             4703.98  4711.50  4715.80  4717.32  4723.09
                             4731.08  4744.19  4751.16  4754.91  4766.03
                             4807.13  4842.79  4847.09  4852.53  4861.22
                             5596.44  5598.15

 Zero-point correction=                           0.370599 (Hartree/Particle)
 Thermal correction to Energy=                    0.389021
 Thermal correction to Enthalpy=                  0.389965
 Thermal correction to Gibbs Free Energy=         0.324924
 Sum of electronic and zero-point Energies=          -1297.606691
 Sum of electronic and thermal Energies=             -1297.588269
 Sum of electronic and thermal Enthalpies=           -1297.587325
 Sum of electronic and thermal Free Energies=        -1297.652366

                     E (Thermal)             CV                S
                      KCal/Mol        Cal/Mol-Kelvin    Cal/Mol-Kelvin
 Total                  244.114             76.482            136.890
 Electronic               0.000              0.000              0.000
 Translational            0.889              2.981             43.384
 Rotational               0.889              2.981             35.150
 Vibrational            242.337             70.520             58.356
 Vibration     1          0.593              1.984              5.970
 Vibration     2          0.599              1.966              4.051
 Vibration     3          0.602              1.955              3.627
 Vibration     4          0.604              1.948              3.439
 Vibration     5          0.607              1.938              3.198
 Vibration     6          0.623              1.887              2.511
 Vibration     7          0.629              1.867              2.328
 Vibration     8          0.631              1.861              2.279
 Vibration     9          0.644              1.821              2.017
 Vibration    10          0.654              1.789              1.847
 Vibration    11          0.669              1.744              1.653
 Vibration    12          0.680              1.712              1.537
 Vibration    13          0.688              1.686              1.454
 Vibration    14          0.692              1.676              1.424
 Vibration    15          0.698              1.658              1.372
 Vibration    16          0.702              1.648              1.343
 Vibration    17          0.711              1.621              1.275
 Vibration    18          0.725              1.581              1.178
 Vibration    19          0.732              1.560              1.134
 Vibration    20          0.747              1.520              1.053
 Vibration    21          0.770              1.459              0.944
 Vibration    22          0.782              1.430              0.896
 Vibration    23          0.791              1.406              0.860
 Vibration    24          0.794              1.397              0.847
 Vibration    25          0.834              1.299              0.716
 Vibration    26          0.837              1.292              0.707
 Vibration    27          0.862              1.235              0.641
 Vibration    28          0.872              1.212              0.616
 Vibration    29          0.920              1.109              0.515
 Vibration    30          0.937              1.074              0.485
 Vibration    31          0.947              1.054              0.468
 Vibration    32          0.971              1.007              0.430

 Normal termination of Gaussian 09 at Fri Apr  1 08:22:12 2016.
