 Gaussian 09, Revision B.01,
 Gaussian 09:  EM64L-G09RevB.01 12-Aug-2010

 -------------------------------
 ## freq=raman b3lyp/6-31+g(d,p)
 -------------------------------

 -----------------------------
 450K 6000ps Cellobiose Unit 1
 -----------------------------
 Symbolic Z-matrix:
 Charge =  0 Multiplicity = 1

                         Standard orientation:
 ---------------------------------------------------------------------
 Center     Atomic      Atomic             Coordinates (Angstroms)
 Number     Number       Type             X           Y           Z
 ---------------------------------------------------------------------
      1          8           0        5.114689   -0.566685   -0.791702
      2          6           0        3.956362   -0.197915   -0.029730
      3          6           0        3.346795    1.137387   -0.421214
      4          8           0        4.225126    2.271720   -0.387439
      5          1           0        5.051025    1.881792   -0.794116
      6          6           0        2.058675    1.511521    0.295434
      7          8           0        1.528786    2.799960   -0.047997
      8          1           0        2.065861    3.553608    0.330285
      9          6           0        3.240677   -2.611396    0.564128
     10          8           0        2.215357   -3.559523    0.237346
     11          1           0        2.664776   -4.432823    0.425173
     12          6           0        2.879426   -1.271334   -0.055051
     13          8           0        1.678849   -0.776240    0.555639
     14          6           0        1.045973    0.405496    0.044005
     15          8           0       -0.142683    0.608230    0.821636
     16          6           0       -1.404373    0.410726    0.165130
     17          6           0       -1.912628   -1.020315    0.225018
     18          8           0       -0.970230   -2.075143   -0.019970
     19          1           0       -0.134744   -2.052369    0.528568
     20          6           0       -3.134613   -1.273913   -0.642576
     21          8           0       -3.400766   -2.678973   -0.523769
     22          1           0       -2.484850   -2.990206   -0.777355
     23          6           0       -2.353484    2.641072    0.671211
     24          8           0       -2.247195    3.449608   -0.509191
     25          1           0       -1.598125    4.198851   -0.371001
     26          6           0       -2.576175    1.143045    0.797306
     27          8           0       -3.854327    0.816752    0.232888
     28          6           0       -4.261892   -0.549700    0.075269
     29          8           0       -5.476503   -0.509253   -0.688575
     30          1           0        5.907036   -0.318938   -0.309614
     31          1           0       -6.148253   -0.031587   -0.196449
 ---------------------------------------------------------------------

 SCF Done:  E(RB3LYP) =  -1288.82696911     A.U. after   33 cycles

 The electronic state is 1-A.
 Alpha  occ. eigenvalues --  -19.25652 -19.24678 -19.22707 -19.22189 -19.21875
 Alpha  occ. eigenvalues --  -19.21805 -19.21583 -19.21580 -19.21578 -19.21187
 Alpha  occ. eigenvalues --  -19.20030 -10.34574 -10.31929 -10.31926 -10.31626
 Alpha  occ. eigenvalues --  -10.31472 -10.31307 -10.30344 -10.30329 -10.30312
 Alpha  occ. eigenvalues --  -10.29622 -10.27818 -10.26863  -1.11974  -1.10678
 Alpha  occ. eigenvalues --   -1.08227  -1.08119  -1.07859  -1.06659  -1.06076
 Alpha  occ. eigenvalues --   -1.05469  -1.04994  -1.04869  -1.04366  -0.82746
 Alpha  occ. eigenvalues --   -0.79566  -0.79416  -0.77586  -0.70108  -0.68719
 Alpha  occ. eigenvalues --   -0.67851  -0.64157  -0.62988  -0.61039  -0.58503
 Alpha  occ. eigenvalues --   -0.56958  -0.56541  -0.55898  -0.55045  -0.52323
 Alpha  occ. eigenvalues --   -0.50608  -0.50469  -0.49888  -0.48966  -0.47462
 Alpha  occ. eigenvalues --   -0.47293  -0.46946  -0.46475  -0.46232  -0.45327
 Alpha  occ. eigenvalues --   -0.43781  -0.43429  -0.43225  -0.42748  -0.41804
 Alpha  occ. eigenvalues --   -0.41636  -0.41077  -0.39521  -0.39115  -0.38407
 Alpha  occ. eigenvalues --   -0.37855  -0.36975  -0.36770  -0.35242  -0.34152
 Alpha  occ. eigenvalues --   -0.33229  -0.32793  -0.30249  -0.28222  -0.27248
 Alpha  occ. eigenvalues --   -0.27152  -0.22814  -0.22022  -0.16680
 Alpha virt. eigenvalues --   -0.14549  -0.12728  -0.12018  -0.11614  -0.08448
 Alpha virt. eigenvalues --   -0.07362  -0.05152  -0.02129  -0.01807  -0.00080
 Alpha virt. eigenvalues --   -0.00048   0.00706   0.01718   0.03030   0.03777

 Mulliken atomic charges:
              1
     1  O   -0.502849
     2  C    0.350430
     3  C    0.252616
     4  O   -0.472872
     5  H    0.352102
     6  C   -0.253211
     7  O   -0.456823
     8  H    0.373554
     9  C   -0.470017
    10  O   -0.467998
    11  H    0.404424
    12  C    0.259216
    13  O   -0.320695
    14  C    0.460891
    15  O   -0.276081
    16  C    0.636144
    17  C    0.177151
    18  O   -0.501794
    19  H    0.426709
    20  C   -0.033277
    21  O   -0.402059
    22  H    0.380521
    23  C   -0.615390
    24  O   -0.390948
    25  H    0.409321
    26  C    0.349918
    27  O   -0.227239
    28  C    0.275087
    29  O   -0.446350
    30  H    0.365108
    31  H    0.364410
 Sum of Mulliken atomic charges =   0.00000

 Dipole moment (field-independent basis, Debye):
    X=              2.3373    Y=              2.9559    Z=              0.7413  Tot=              3.8406
 Quadrupole moment (field-independent basis, Debye-Ang):
   XX=           -108.6303   YY=           -115.7496   ZZ=           -140.4502
   XY=              0.7559   XZ=             -4.1268   YZ=             -2.6078

  Exact polarizability: 706.629 -53.911 356.331 -13.651  10.187 135.278
 Approx polarizability:5100.791-593.337 866.425-471.368 101.139 323.106

 ******    5 imaginary frequencies (negative Signs) ******

                     1                      2                      3
                     A                      A                      A
 Frequencies --  -561.6063              -448.5044              -426.9508
 Red. masses --     5.2741                 4.8150                 1.3151
 Frc consts  --     0.9801                 0.5707                 0.1412
 IR Inten    --   145.0073               184.7016               168.6467
 Raman Activ --  2313.3482              1348.4056                94.7867

                     4                      5                      6
                     A                      A                      A
 Frequencies --  -332.5497              -239.8651                77.9855
 Red. masses --     2.0388                 2.4122                 9.1764
 Frc consts  --     0.1328                 0.0818                 0.0329
 IR Inten    --   184.9664                56.2258                11.8464
 Raman Activ --   253.9216               349.8135                20.1651

                     7                      8                      9
                     A                      A                      A
 Frequencies --    89.2491               101.2674               123.7965
 Red. masses --     8.8463                 8.6239                 8.2209
 Frc consts  --     0.0415                 0.0521                 0.0742
 IR Inten    --     5.0134                 3.8787                25.7911
 Raman Activ --    13.7239                 5.4164                16.9537

                    10                     11                     12
                     A                      A                      A
 Frequencies --   126.3499               136.7451               151.4553
 Red. masses --     8.0938                 7.3019                 8.8068
 Frc consts  --     0.0761                 0.0804                 0.1190
 IR Inten    --     2.6983                28.2233                 6.3713
 Raman Activ --    54.5791                 9.6000                15.5769

                    13                     14                     15
                     A                      A                      A
 Frequencies --   163.2564               163.8740               199.0496
 Red. masses --     9.1172                 8.3894                 8.0859
 Frc consts  --     0.1432                 0.1327                 0.1888
 IR Inten    --     0.8249                14.7400                12.5421
 Raman Activ --     2.4225                 9.2015                18.4993

                    16                     17                     18
                     A                      A                      A
 Frequencies --   200.3174               226.1771               258.1477
 Red. masses --     8.5367                 7.5796                 6.2979
 Frc consts  --     0.2018                 0.2285                 0.2473
 IR Inten    --    37.5290                31.2617                39.7529
 Raman Activ --     2.6381                75.9099                84.6947

                    19                     20                     21
                     A                      A                      A
 Frequencies --   261.2238               283.0402               295.3030
 Red. masses --    10.7601                 9.0052                10.8430
 Frc consts  --     0.4326                 0.4251                 0.5571
 IR Inten    --    34.2750                17.4185               222.9794
 Raman Activ --    36.2126                40.2527                51.4398

                    22                     23                     24
                     A                      A                      A
 Frequencies --   308.9862               317.5014               321.3423
 Red. masses --     6.8623                 7.6816                 7.8214
 Frc consts  --     0.3860                 0.4562                 0.4758
 IR Inten    --    42.5258                82.4811                11.0905
 Raman Activ --    53.2755                56.8418                65.4351

                    25                     26                     27
                     A                      A                      A
 Frequencies --   327.8987               354.7534               382.7763
 Red. masses --    10.2905                 7.0505                 6.3256
 Frc consts  --     0.6519                 0.5228                 0.5461
 IR Inten    --    84.3932                 9.7380                29.8905
 Raman Activ --   100.3027                84.1332                32.7623

                    28                     29                     30
                     A                      A                      A
 Frequencies --   397.5800               401.4637               418.4368
 Red. masses --     7.9374                10.5453                 9.4663
 Frc consts  --     0.7392                 1.0014                 0.9765
 IR Inten    --   119.0718                15.9494                18.3167
 Raman Activ --    51.8007               114.4706                10.6920

                    31                     32                     33
                     A                      A                      A
 Frequencies --   424.8818               447.0272               472.3035
 Red. masses --    10.3053                 9.6246                 9.3736
 Frc consts  --     1.0961                 1.1332                 1.2320
 IR Inten    --    21.6173               157.1073               567.9017
 Raman Activ --   127.2822                60.4390                95.4743

                    34                     35                     36
                     A                      A                      A
 Frequencies --   477.9961               525.9643               541.5223
 Red. masses --    10.7840                 5.5697                 5.7990
 Frc consts  --     1.4517                 0.9078                 1.0019
 IR Inten    --    13.0597               111.0244               279.3021
 Raman Activ --    19.9344               113.0173                65.0672

                    37                     38                     39
                     A                      A                      A
 Frequencies --   559.1781               588.3077               603.2540
 Red. masses --     8.2040                 3.3283                 4.0242
 Frc consts  --     1.5114                 0.6787                 0.8628
 IR Inten    --    41.9600                85.6066                35.1869
 Raman Activ --   160.8422                95.1799               133.0759

                    40                     41                     42
                     A                      A                      A
 Frequencies --   609.4577               620.2319               637.5470
 Red. masses --     1.9087                 2.4814                 3.5442
 Frc consts  --     0.4177                 0.5624                 0.8488
 IR Inten    --    90.8794                23.7092                36.5655
 Raman Activ --    47.5174                44.8323                41.5576

                    43                     44                     45
                     A                      A                      A
 Frequencies --   674.1998               683.5848               691.9649
 Red. masses --     4.8622                 4.6304                 1.6831
 Frc consts  --     1.3021                 1.2748                 0.4748
 IR Inten    --    10.2639               465.1721                69.0700
 Raman Activ --    69.2371                72.8788                67.7760

                    46                     47                     48
                     A                      A                      A
 Frequencies --   712.5268               720.0652               747.1457
 Red. masses --     4.4074                 3.2090                 1.3679
 Frc consts  --     1.3184                 0.9803                 0.4499
 IR Inten    --   154.3077               304.2593                51.4083
 Raman Activ --    63.3574               248.5699                84.9580

                    49                     50                     51
                     A                      A                      A
 Frequencies --   758.8962               798.9533               807.8801
 Red. masses --     2.7649                 3.9621                 5.3490
 Frc consts  --     0.9382                 1.4901                 2.0569
 IR Inten    --   127.9780               320.2091                85.8852
 Raman Activ --    99.6683                89.2711                32.3345

                    52                     53                     54
                     A                      A                      A
 Frequencies --   825.7400               841.4310               855.7509
 Red. masses --     5.4860                 4.7144                 6.0454
 Frc consts  --     2.2039                 1.9666                 2.6084
 IR Inten    --   130.4196               113.5179               421.2599
 Raman Activ --    95.1878                66.4702                22.0015

                    55                     56                     57
                     A                      A                      A
 Frequencies --   863.0650               888.9628               898.0990
 Red. masses --     3.2653                 3.2515                 2.6776
 Frc consts  --     1.4330                 1.5139                 1.2725
 IR Inten    --     0.9668                13.8217                28.2266
 Raman Activ --    11.8265                84.5914                37.1739

                    58                     59                     60
                     A                      A                      A
 Frequencies --   928.7313               942.8364               956.8383
 Red. masses --     3.7713                 5.3820                 7.7838
 Frc consts  --     1.9166                 2.8188                 4.1987
 IR Inten    --   749.6227                96.1319                47.4270
 Raman Activ --    17.0454               142.2601                96.7314

                    61                     62                     63
                     A                      A                      A
 Frequencies --   973.6947               982.6869               995.2634
 Red. masses --     8.8421                 7.3806                 7.3342
 Frc consts  --     4.9391                 4.1993                 4.2804
 IR Inten    --   144.8718                17.6870               125.3097
 Raman Activ --   104.5994                90.0223               362.0872

                    64                     65                     66
                     A                      A                      A
 Frequencies --  1029.5648              1042.3042              1062.7692
 Red. masses --     7.0364                 4.6218                 3.2381
 Frc consts  --     4.3945                 2.9583                 2.1549
 IR Inten    --   328.7247              1245.5901               273.2233
 Raman Activ --    92.1320               113.6315                14.3955

                    67                     68                     69
                     A                      A                      A
 Frequencies --  1077.5488              1079.8868              1093.4866
 Red. masses --     7.0494                 7.9447                 8.7732
 Frc consts  --     4.8226                 5.4586                 6.1807
 IR Inten    --    89.5806               101.5183               281.8306
 Raman Activ --    72.4868                71.6352                10.8150

                    70                     71                     72
                     A                      A                      A
 Frequencies --  1113.2388              1123.1073              1205.3127
 Red. masses --     4.5574                 4.2486                 1.9075
 Frc consts  --     3.3277                 3.1575                 1.6327
 IR Inten    --   152.5564               101.8044                39.9687
 Raman Activ --    44.3353                60.7241               122.5426

                    73                     74                     75
                     A                      A                      A
 Frequencies --  1244.2930              1245.7196              1299.9254
 Red. masses --     1.2213                 1.6167                 1.3919
 Frc consts  --     1.1141                 1.4781                 1.3858
 IR Inten    --   175.9186                24.0319                13.5767
 Raman Activ --    87.3464                87.6372                66.4761

                    76                     77                     78
                     A                      A                      A
 Frequencies --  1325.4371              1348.9799              1413.4853
 Red. masses --     1.3177                 1.1682                 1.2583
 Frc consts  --     1.3639                 1.2526                 1.4812
 IR Inten    --    80.8960                64.5202               138.9750
 Raman Activ --    39.4951                33.2992                 9.6936

                    79                     80                     81
                     A                      A                      A
 Frequencies --  1511.1750              3371.9854              3380.3223
 Red. masses --     1.1705                 1.0659                 1.0662
 Frc consts  --     1.5749                 7.1406                 7.1779
 IR Inten    --   124.0991                34.6323                76.4132
 Raman Activ --    38.0707                45.6012                12.7116

                    82                     83                     84
                     A                      A                      A
 Frequencies --  3389.7920              3395.4801              3403.7286
 Red. masses --     1.0682                 1.0650                 1.0670
 Frc consts  --     7.2319                 7.2344                 7.2833
 IR Inten    --   292.8650               106.5305               443.8275
 Raman Activ --    83.1481               387.4664               246.4169

                    85                     86                     87
                     A                      A                      A
 Frequencies --  3407.0864              3911.6159              3925.4050
 Red. masses --     1.0667                 1.0669                 1.0667
 Frc consts  --     7.2956                 9.6176                 9.6841
 IR Inten    --   152.9293               181.5635               365.1669
 Raman Activ --   317.4822               541.7430               494.5834

 - Thermochemistry -
 -------------------
 Temperature   298.150 Kelvin.  Pressure   1.00000 Atm.
 Atom     1 has atomic number  8 and mass  15.99491

 Molecular mass:   328.00666 amu.
 Principal axes and moments of inertia in atomic units:
                           1         2         3
     Eigenvalues --  4446.63799********************
           X            1.00000   0.00219  -0.00012
           Y           -0.00219   1.00000  -0.00219
           Z            0.00012   0.00219   1.00000
 This molecule is an asymmetric top.
 Rotational symmetry number  1.
 Warning -- assumption of classical behavior for rotation
           may cause significant error
 Rotational temperatures (Kelvin)      0.01948     0.00754     0.00562
 Rotational constants (GHZ):           0.40587     0.15704     0.11713
    5 imaginary frequencies ignored.
 Zero-point vibrational energy     463825.8 (Joules/Mol)
                                  110.85702 (Kcal/Mol)
 Warning -- explicit consideration of  36 degrees of freedom as
           vibrations may cause significant error
 Vibrational temperatures:    112.20   128.41   145.70   178.12   181.79
          (Kelvin)            196.75   217.91   234.89   235.78   286.39
                              288.21   325.42   371.42   375.84   407.23
                              424.87   444.56   456.81   462.34   471.77
                              510.41   550.73   572.03   577.62   602.04
                              611.31   643.17   679.54   687.73   756.74
                              779.13   804.53   846.44   867.95   876.87
                              892.37   917.29   970.02   983.52   995.58
                             1025.17  1036.01  1074.97  1091.88  1149.51
                             1162.36  1188.05  1210.63  1231.23  1241.76
                             1279.02  1292.16  1336.24  1356.53  1376.68
                             1400.93  1413.87  1431.96  1481.31  1499.64
                             1529.09  1550.35  1553.71  1573.28  1601.70
                             1615.90  1734.17  1790.26  1792.31  1870.30
                             1907.01  1940.88  2033.69  2174.24  4851.53
                             4863.52  4877.15  4885.33  4897.20  4902.03
                             5627.94  5647.78

 Zero-point correction=                           0.176662 (Hartree/Particle)
 Thermal correction to Energy=                    0.196564
 Thermal correction to Enthalpy=                  0.197508
 Thermal correction to Gibbs Free Energy=         0.130782
 Sum of electronic and zero-point Energies=          -1288.650307
 Sum of electronic and thermal Energies=             -1288.630406
 Sum of electronic and thermal Enthalpies=           -1288.629461
 Sum of electronic and thermal Free Energies=        -1288.696188

                     E (Thermal)             CV                S
                      KCal/Mol        Cal/Mol-Kelvin    Cal/Mol-Kelvin
 Total                  123.345             79.861            140.437
 Electronic               0.000              0.000              0.000
 Translational            0.889              2.981             43.259
 Rotational               0.889              2.981             35.020
 Vibrational            121.568             73.899             62.158
 Vibration     1          0.599              1.964              3.941
 Vibration     2          0.602              1.957              3.676
 Vibration     3          0.604              1.948              3.430
 Vibration     4          0.610              1.929              3.040
 Vibration     5          0.611              1.927              3.001
 Vibration     6          0.614              1.917              2.849
 Vibration     7          0.619              1.901              2.654
 Vibration     8          0.623              1.888              2.512
 Vibration     9          0.623              1.887              2.505
 Vibration    10          0.637              1.841              2.142
 Vibration    11          0.638              1.839              2.130
 Vibration    12          0.650              1.801              1.909
 Vibration    13          0.667              1.749              1.674
 Vibration    14          0.669              1.744              1.654
 Vibration    15          0.682              1.705              1.515
 Vibration    16          0.690              1.682              1.443
 Vibration    17          0.698              1.657              1.368
 Vibration    18          0.704              1.640              1.323
 Vibration    19          0.707              1.633              1.303
 Vibration    20          0.711              1.620              1.270
 Vibration    21          0.731              1.566              1.145
 Vibration    22          0.752              1.507              1.028
 Vibration    23          0.764              1.475              0.972
 Vibration    24          0.767              1.467              0.957
 Vibration    25          0.781              1.430              0.897
 Vibration    26          0.787              1.416              0.876
 Vibration    27          0.806              1.367              0.805
 Vibration    28          0.829              1.311              0.731
 Vibration    29          0.834              1.299              0.715
 Vibration    30          0.881              1.193              0.596
 Vibration    31          0.897              1.158              0.562
 Vibration    32          0.915              1.120              0.525
 Vibration    33          0.946              1.057              0.470
 Vibration    34          0.962              1.025              0.444
 Vibration    35          0.968              1.012              0.434
 Vibration    36          0.980              0.989              0.416

 Normal termination of Gaussian 09 at Sat Oct 17 21:50:14 2015.
