 Gaussian 09, Revision B.01,
 Gaussian 09:  EM64L-G09RevB.01 12-Aug-2010

 ------------------------------------------------
 # freq=raman b3lyp/6-31+g(d,p) geom=connectivity
 ------------------------------------------------

 ------------
 300 6000.com
 ------------
 Symbolic Z-matrix:
 Charge =  0 Multiplicity = 1

                         Standard orientation:
 ---------------------------------------------------------------------
 Center     Atomic      Atomic             Coordinates (Angstroms)
 Number     Number       Type             X           Y           Z
 ---------------------------------------------------------------------
      1          8           0       -5.115626   -0.401894    0.346279
      2          6           0       -3.779376   -0.080057   -0.066509
      3          6           0       -3.245480    1.282480    0.344635
      4          8           0       -4.181943    2.325755    0.037436
      5          1           0       -5.135692    2.042445    0.134173
      6          6           0       -1.876007    1.606511   -0.228950
      7          8           0       -1.185856    2.752538    0.289511
      8          1           0       -0.334523    2.869033   -0.223693
      9          6           0       -3.051513   -2.529162   -0.111821
     10          8           0       -4.274254   -3.227439    0.161258
     11          1           0       -4.066072   -4.204909    0.193583
     12          6           0       -2.735589   -1.110015    0.332152
     13          8           0       -1.491688   -0.774017   -0.301244
     14          6           0       -0.914802    0.476728    0.101621
     15          8           0        0.298083    0.486545   -0.664315
     16          6           0        1.528203    0.203976    0.018942
     17          6           0        1.949959   -1.168474   -0.482098
     18          8           0        1.081092   -2.251812   -0.121234
     19          1           0        0.146122   -1.996660   -0.367234
     20          6           0        3.312266   -1.552815    0.072862
     21          8           0        3.956610   -2.734511   -0.424737
     22          1           0        4.722748   -2.954240    0.180045
     23          6           0        2.386025    2.646881    0.084317
     24          8           0        1.278112    3.346521   -0.500648
     25          1           0        1.385620    4.297685   -0.210004
     26          6           0        2.648824    1.191006   -0.262266
     27          8           0        3.848881    0.760589    0.396681
     28          6           0        4.390661   -0.489817   -0.051515
     29          8           0        5.372907   -0.552437    0.992644
     30          1           0       -5.650699   -0.598070   -0.426257
     31          1           0        6.243256   -0.674364    0.606345
     32          1           0        4.821299   -0.427408   -1.029040
     33          1           0        3.165303   -1.711784    1.120731
     34          1           0        2.017264   -1.130865   -1.549316
     35          1           0        1.348597    0.159163    1.072808
     36          1           0        2.837883    1.152621   -1.314731
     37          1           0        3.270700    3.194032   -0.166431
     38          1           0        2.265760    2.700148    1.146202
     39          1           0       -0.695257    0.465363    1.148794
     40          1           0       -1.956023    1.698391   -1.291990
     41          1           0       -3.138665    1.264170    1.409132
     42          1           0       -3.799614   -0.077602   -1.136315
     43          1           0       -2.608263   -1.091688    1.394391
     44          1           0       -2.268541   -3.141951    0.283585
     45          1           0       -2.940761   -2.535664   -1.176053
 ---------------------------------------------------------------------

 SCF Done:  E(RB3LYP) =  -1297.92779220     A.U. after   13 cycles

 The electronic state is 1-A.
 Alpha  occ. eigenvalues --  -19.20030 -19.18959 -19.18883 -19.18691 -19.18090
 Alpha  occ. eigenvalues --  -19.17912 -19.17110 -19.16865 -19.15764 -19.15623
 Alpha  occ. eigenvalues --  -19.14166 -10.31017 -10.30879 -10.26504 -10.26262
 Alpha  occ. eigenvalues --  -10.26058 -10.25822 -10.25588 -10.25250 -10.25090
 Alpha  occ. eigenvalues --  -10.25015 -10.24867 -10.24418  -1.10032  -1.09493
 Alpha  occ. eigenvalues --   -1.05943  -1.05213  -1.03968  -1.03328  -1.02749
 Alpha  occ. eigenvalues --   -1.02287  -1.01825  -1.01163  -1.00258  -0.82397
 Alpha  occ. eigenvalues --   -0.80515  -0.79359  -0.78563  -0.72095  -0.70157
 Alpha  occ. eigenvalues --   -0.67617  -0.65106  -0.63403  -0.62435  -0.61538
 Alpha  occ. eigenvalues --   -0.60452  -0.56960  -0.55737  -0.54911  -0.54713
 Alpha  occ. eigenvalues --   -0.53991  -0.53462  -0.53318  -0.52293  -0.51743
 Alpha  occ. eigenvalues --   -0.50903  -0.50206  -0.49329  -0.48819  -0.46566
 Alpha  occ. eigenvalues --   -0.46188  -0.45283  -0.44710  -0.43920  -0.43459
 Alpha  occ. eigenvalues --   -0.43061  -0.42323  -0.41678  -0.40326  -0.38939
 Alpha  occ. eigenvalues --   -0.38506  -0.38276  -0.37570  -0.35879  -0.35416
 Alpha  occ. eigenvalues --   -0.34842  -0.34802  -0.34137  -0.33962  -0.33669
 Alpha  occ. eigenvalues --   -0.32775  -0.31414  -0.31004  -0.30559  -0.29839
 Alpha  occ. eigenvalues --   -0.29268  -0.28647  -0.28350  -0.27623  -0.26976
 Alpha  occ. eigenvalues --   -0.26349
 Alpha virt. eigenvalues --   -0.02080  -0.02024  -0.01765  -0.00477   0.00215
 Alpha virt. eigenvalues --    0.00969   0.01858   0.02271   0.02568   0.03458
 Alpha virt. eigenvalues --    0.03695   0.04321   0.04683   0.05299   0.05731

 Mulliken atomic charges:
              1
     1  O   -0.522940
     2  C   -0.295832
     3  C    0.163515
     4  O   -0.520682
     5  H    0.360124
     6  C   -0.084295
     7  O   -0.522233
     8  H    0.443108
     9  C   -0.239011
    10  O   -0.540799
    11  H    0.359769
    12  C    0.423122
    13  O   -0.431581
    14  C    0.274346
    15  O   -0.332064
    16  C   -0.080327
    17  C    0.012609
    18  O   -0.513734
    19  H    0.401026
    20  C    0.106326
    21  O   -0.499531
    22  H    0.350103
    23  C   -0.053042
    24  O   -0.587618
    25  H    0.378385
    26  C    0.024325
    27  O   -0.300761
    28  C    0.130885
    29  O   -0.545484
    30  H    0.375248
    31  H    0.354613
    32  H    0.140369
    33  H    0.155832
    34  H    0.141790
    35  H    0.130106
    36  H    0.129406
    37  H    0.142393
    38  H    0.149156
    39  H    0.121799
    40  H    0.144666
    41  H    0.126547
    42  H    0.129349
    43  H    0.129007
    44  H    0.130491
    45  H    0.141519
 Sum of Mulliken atomic charges =   0.00000

 Dipole moment (field-independent basis, Debye):
    X=              2.9608    Y=             -0.1264    Z=             -1.3082  Tot=              3.2394
 Quadrupole moment (field-independent basis, Debye-Ang):
   XX=           -118.7741   YY=           -136.8117   ZZ=           -141.0948
   XY=             14.8758   XZ=              3.4877   YZ=             -2.6439

  Exact polarizability: 231.220  -0.820 193.128   2.070   0.183 141.493
 Approx polarizability: 268.904   0.247 246.885   3.124   0.246 231.511

 ******    7 imaginary frequencies (negative Signs) ******

                     1                      2                      3
                     A                      A                      A
 Frequencies --  -329.3402              -297.5241              -293.2919
 Red. masses --     1.5627                 1.1640                 1.1997
 Frc consts  --     0.0999                 0.0607                 0.0608
 IR Inten    --    24.7707                96.9730               111.5310
 Raman Activ --     0.2372                 1.0632                 0.7704

                     4                      5                      6
                     A                      A                      A
 Frequencies --  -281.5993               -81.1415               -52.7718
 Red. masses --     1.7607                 6.8806                 6.0376
 Frc consts  --     0.0823                 0.0267                 0.0099
 IR Inten    --     3.8510                 0.4111                 0.5736
 Raman Activ --     0.0353                 0.0348                 0.0582

                     7                      8                      9
                     A                      A                      A
 Frequencies --   -22.5250                22.3932                45.5369
 Red. masses --     6.3372                 6.7221                 6.3641
 Frc consts  --     0.0019                 0.0020                 0.0078
 IR Inten    --     1.0303                 2.4301                 0.5600
 Raman Activ --     0.1413                 0.0257                 0.0596

                    10                     11                     12
                     A                      A                      A
 Frequencies --    67.7453                76.0904                96.6370
 Red. masses --     6.7635                 7.0462                 6.1907
 Frc consts  --     0.0183                 0.0240                 0.0341
 IR Inten    --     3.7288                 0.1915                 1.1249
 Raman Activ --     0.1260                 0.0404                 0.1387

                    13                     14                     15
                     A                      A                      A
 Frequencies --   151.2758               167.2874               175.3723
 Red. masses --     6.2151                 6.0881                 7.8971
 Frc consts  --     0.0838                 0.1004                 0.1431
 IR Inten    --     2.7523                 3.1188                 0.4305
 Raman Activ --     0.3182                 0.4371                 0.6253

                    16                     17                     18
                     A                      A                      A
 Frequencies --   207.9655               223.1857               261.6750
 Red. masses --     6.8041                 5.9116                 4.6188
 Frc consts  --     0.1734                 0.1735                 0.1863
 IR Inten    --     0.0410                 4.5095                16.3056
 Raman Activ --     2.3177                 0.7792                 0.5042

                    19                     20                     21
                     A                      A                      A
 Frequencies --   267.3224               278.8527               286.8711
 Red. masses --     4.9598                 4.5605                 5.2663
 Frc consts  --     0.2088                 0.2089                 0.2553
 IR Inten    --     5.3874                 1.1322                 2.2490
 Raman Activ --     0.0934                 0.0571                 0.5585

                    22                     23                     24
                     A                      A                      A
 Frequencies --   300.3750               312.4260               318.5488
 Red. masses --     5.9511                 5.8006                 6.3998
 Frc consts  --     0.3164                 0.3336                 0.3826
 IR Inten    --     8.3791                 1.1483                 1.7114
 Raman Activ --     0.3942                 2.5517                 4.0648

                    25                     26                     27
                     A                      A                      A
 Frequencies --   338.5898               356.7912               375.7368
 Red. masses --     6.8690                 4.5044                 7.9777
 Frc consts  --     0.4640                 0.3378                 0.6636
 IR Inten    --    10.5127                 5.9025                 4.2640
 Raman Activ --     3.0296                 0.3415                 3.1144

                    28                     29                     30
                     A                      A                      A
 Frequencies --   394.6214               411.3947               422.7652
 Red. masses --     4.6935                 4.8262                 5.2201
 Frc consts  --     0.4306                 0.4813                 0.5497
 IR Inten    --    17.1683                 6.9449                 0.5655
 Raman Activ --     2.5462                 4.1375                 4.0026

                    31                     32                     33
                     A                      A                      A
 Frequencies --   439.6689               475.0064               482.0840
 Red. masses --     3.9952                 4.5271                 5.3458
 Frc consts  --     0.4550                 0.6018                 0.7320
 IR Inten    --     3.6060                 4.6460                15.9469
 Raman Activ --     1.5135                 4.9659                 0.4705

                    34                     35                     36
                     A                      A                      A
 Frequencies --   503.5410               524.4484               567.5771
 Red. masses --     3.6566                 3.0385                 3.4131
 Frc consts  --     0.5463                 0.4924                 0.6478
 IR Inten    --    21.3087                 6.7617                23.8242
 Raman Activ --     2.4772                 3.7549                 1.3695

                    37                     38                     39
                     A                      A                      A
 Frequencies --   580.6163               611.0828               623.2080
 Red. masses --     2.8394                 6.4440                 4.3342
 Frc consts  --     0.5640                 1.4178                 0.9918
 IR Inten    --    49.4572                16.5077                20.7018
 Raman Activ --     1.5225                 0.7536                 1.0896

                    40                     41                     42
                     A                      A                      A
 Frequencies --   642.9714               662.2640               689.5794
 Red. masses --     5.3818                 1.1106                 1.1304
 Frc consts  --     1.3109                 0.2870                 0.3167
 IR Inten    --    11.6814               112.5377                93.6894
 Raman Activ --     0.4783                 1.8456                 2.2801

                    43                     44                     45
                     A                      A                      A
 Frequencies --   695.2528               712.3511               737.5219
 Red. masses --     3.9832                 1.0724                 1.1118
 Frc consts  --     1.1344                 0.3206                 0.3563
 IR Inten    --    13.2993                95.1347               135.4320
 Raman Activ --     1.4277                 1.9484                 1.7121

                    46                     47                     48
                     A                      A                      A
 Frequencies --   785.6930               836.8657               846.3725
 Red. masses --     1.0684                 1.6805                 1.2805
 Frc consts  --     0.3886                 0.6934                 0.5405
 IR Inten    --   128.7043                10.3937                60.0349
 Raman Activ --     2.4019                 1.2586                 0.4181

                    49                     50                     51
                     A                      A                      A
 Frequencies --   873.8904               923.3619               951.9618
 Red. masses --     1.4862                 5.2022                 5.2781
 Frc consts  --     0.6687                 2.6132                 2.8182
 IR Inten    --    31.7290               162.3686                18.8413
 Raman Activ --     1.2293                 5.0766                 0.0990

                    52                     53                     54
                     A                      A                      A
 Frequencies --   979.1473               987.3000               990.9693
 Red. masses --     3.8286                 5.8940                 5.4683
 Frc consts  --     2.1626                 3.3850                 3.1639
 IR Inten    --    49.7107               102.4779               101.3901
 Raman Activ --     1.1017                 1.8511                 6.9812

                    55                     56                     57
                     A                      A                      A
 Frequencies --  1010.4071              1012.7306              1029.4829
 Red. masses --     5.1399                 7.0560                 5.5555
 Frc consts  --     3.0917                 4.2638                 3.4691
 IR Inten    --   141.1115                93.6702               112.1625
 Raman Activ --     0.6078                 0.7903                 3.7736

                    58                     59                     60
                     A                      A                      A
 Frequencies --  1044.2383              1064.0513              1068.8333
 Red. masses --     3.8261                 2.6445                 2.7480
 Frc consts  --     2.4582                 1.7641                 1.8496
 IR Inten    --   440.7996                52.2275                15.6792
 Raman Activ --     2.8200                 7.1695                 4.7415

                    61                     62                     63
                     A                      A                      A
 Frequencies --  1080.6753              1090.3022              1095.0767
 Red. masses --     5.0938                 5.8330                 4.1892
 Frc consts  --     3.5050                 4.0854                 2.9599
 IR Inten    --    84.3473                14.0016                75.2240
 Raman Activ --     0.9626                 1.1062                 9.6855

                    64                     65                     66
                     A                      A                      A
 Frequencies --  1108.5229              1114.3222              1118.3452
 Red. masses --     2.9439                 3.7048                 2.7192
 Frc consts  --     2.1314                 2.7104                 2.0037
 IR Inten    --    55.1388                59.0667                36.4783
 Raman Activ --     6.8830                16.9170                 5.5337

                    67                     68                     69
                     A                      A                      A
 Frequencies --  1119.8936              1130.6605              1141.8374
 Red. masses --     2.6445                 2.3317                 2.9139
 Frc consts  --     1.9541                 1.7563                 2.2384
 IR Inten    --    70.8570               198.0702                18.5680
 Raman Activ --     6.8245                 2.0694                12.1971

                    70                     71                     72
                     A                      A                      A
 Frequencies --  1152.0394              1153.2534              1162.0543
 Red. masses --     2.8734                 1.7411                 2.3010
 Frc consts  --     2.2469                 1.3644                 1.8307
 IR Inten    --    21.8975                15.0159                19.1705
 Raman Activ --     3.3909                 6.5787                 1.8580

                    73                     74                     75
                     A                      A                      A
 Frequencies --  1170.9442              1181.1720              1191.2320
 Red. masses --     1.8341                 1.6460                 1.9430
 Frc consts  --     1.4817                 1.3530                 1.6244
 IR Inten    --    14.4237                 3.0866                11.5468
 Raman Activ --     3.6177                 1.8385                 1.9661

                    76                     77                     78
                     A                      A                      A
 Frequencies --  1199.9148              1218.9771              1221.7780
 Red. masses --     1.5076                 1.3640                 1.3710
 Frc consts  --     1.2789                 1.1941                 1.2058
 IR Inten    --    13.8537                 8.9902                 6.5875
 Raman Activ --     3.8085                 1.3582                 1.4970

                    79                     80                     81
                     A                      A                      A
 Frequencies --  1229.6368              1242.9567              1253.2501
 Red. masses --     1.2916                 1.2533                 1.3620
 Frc consts  --     1.1506                 1.1408                 1.2604
 IR Inten    --    12.6068                 2.7650                14.7664
 Raman Activ --     4.1653                 1.1133                 2.0362

                    82                     83                     84
                     A                      A                      A
 Frequencies --  1282.7371              1283.8021              1291.3656
 Red. masses --     1.2737                 1.3895                 1.2993
 Frc consts  --     1.2348                 1.3493                 1.2766
 IR Inten    --     3.1347                27.4565                28.6170
 Raman Activ --     3.5067                 1.5358                 0.7027

                    85                     86                     87
                     A                      A                      A
 Frequencies --  1295.2547              1300.6845              1302.1234
 Red. masses --     1.2091                 1.2565                 1.2975
 Frc consts  --     1.1951                 1.2524                 1.2962
 IR Inten    --    14.3420                71.7570                12.7311
 Raman Activ --     2.0107                 3.1142                 4.4153

                    88                     89                     90
                     A                      A                      A
 Frequencies --  1314.8704              1325.5326              1334.2499
 Red. masses --     1.2223                 1.2325                 1.3968
 Frc consts  --     1.2451                 1.2759                 1.4650
 IR Inten    --     7.4050                 0.6525                17.1828
 Raman Activ --    13.8680                 6.5684                 4.6780

                    91                     92                     93
                     A                      A                      A
 Frequencies --  1341.7719              1345.3427              1358.3500
 Red. masses --     1.1685                 1.2549                 1.1397
 Frc consts  --     1.2395                 1.3382                 1.2389
 IR Inten    --    39.5375                17.1557                31.7368
 Raman Activ --     6.5239                 4.6729                 2.8040

                    94                     95                     96
                     A                      A                      A
 Frequencies --  1359.2632              1369.4246              1374.7116
 Red. masses --     1.1847                 1.4844                 1.4405
 Frc consts  --     1.2896                 1.6401                 1.6039
 IR Inten    --    79.9407                 9.9529                 5.6327
 Raman Activ --     3.9585                 5.9460                13.4345

                    97                     98                     99
                     A                      A                      A
 Frequencies --  1386.7533              1392.3110              1400.6109
 Red. masses --     1.3954                 1.6506                 1.5373
 Frc consts  --     1.5811                 1.8852                 1.7768
 IR Inten    --    11.4823                22.9093                 5.2208
 Raman Activ --     2.3636                 3.9221                 6.4965

                   100                    101                    102
                     A                      A                      A
 Frequencies --  1419.0544              1431.7248              1462.5531
 Red. masses --     1.3635                 1.3921                 1.3633
 Frc consts  --     1.6178                 1.6812                 1.7182
 IR Inten    --    12.4356                25.3414                53.0220
 Raman Activ --     3.5183                 1.1804                 2.5253

                   103                    104                    105
                     A                      A                      A
 Frequencies --  1464.3634              1470.3032              1476.9342
 Red. masses --     1.3698                 1.3745                 1.1149
 Frc consts  --     1.7306                 1.7506                 1.4329
 IR Inten    --    30.1006                19.4893                 4.6538
 Raman Activ --     3.5260                 0.8387                 3.2658

                   106                    107                    108
                     A                      A                      A
 Frequencies --  1483.1097              1489.5582              3263.8426
 Red. masses --     1.0935                 1.3209                 1.0640
 Frc consts  --     1.4171                 1.7267                 6.6784
 IR Inten    --     5.5087                18.3031               397.3862
 Raman Activ --     6.2381                 0.6993                61.0148

                   109                    110                    111
                     A                      A                      A
 Frequencies --  3264.5070              3274.6005              3275.8412
 Red. masses --     1.0603                 1.0783                 1.0819
 Frc consts  --     6.6576                 6.8124                 6.8405
 IR Inten    --   250.4617                40.7116                57.6876
 Raman Activ --    45.1092               277.3197                14.0052

                   112                    113                    114
                     A                      A                      A
 Frequencies --  3278.6255              3282.0423              3289.5312
 Red. masses --     1.0672                 1.0831                 1.0827
 Frc consts  --     6.7587                 6.8739                 6.9028
 IR Inten    --   180.8684                29.1933                 8.7536
 Raman Activ --   133.3307                38.8325               140.0357

                   115                    116                    117
                     A                      A                      A
 Frequencies --  3294.6901              3296.6286              3300.9360
 Red. masses --     1.0878                 1.0851                 1.0852
 Frc consts  --     6.9569                 6.9478                 6.9668
 IR Inten    --    15.2862                 0.5829                10.4252
 Raman Activ --    49.1957                23.6812                52.2413

                   118                    119                    120
                     A                      A                      A
 Frequencies --  3309.0369              3313.3533              3317.6223
 Red. masses --     1.0870                 1.0894                 1.0991
 Frc consts  --     7.0125                 7.0467                 7.1277
 IR Inten    --     2.2088                25.7184                63.9444
 Raman Activ --    35.5683                27.8122                20.8947

                   121                    122                    123
                     A                      A                      A
 Frequencies --  3318.6535              3326.3268              3359.0696
 Red. masses --     1.0885                 1.1060                 1.0670
 Frc consts  --     7.0631                 7.2097                 7.0936
 IR Inten    --    93.0084                59.3078               358.3849
 Raman Activ --    45.2881                55.3124               173.2501

                   124                    125                    126
                     A                      A                      A
 Frequencies --  3381.4658              3390.9305              3392.5591
 Red. masses --     1.0665                 1.0682                 1.0663
 Frc consts  --     7.1851                 7.2368                 7.2310
 IR Inten    --    38.8012                43.5615                67.8797
 Raman Activ --   131.0867               134.3558               129.1645

                   127                    128                    129
                     A                      A                      A
 Frequencies --  3393.3372              3918.4752              3919.9561
 Red. masses --     1.0667                 1.0680                 1.0674
 Frc consts  --     7.2370                 9.6615                 9.6639
 IR Inten    --    45.2074                88.8057                51.7068
 Raman Activ --   140.6940                74.7506               152.3069

 - Thermochemistry -
 -------------------
 Temperature   298.150 Kelvin.  Pressure   1.00000 Atm.
 Atom     1 has atomic number  8 and mass  15.99491

 Molecular mass:   342.11621 amu.
 Principal axes and moments of inertia in atomic units:
                           1         2         3
     Eigenvalues --  4471.20404********************
           X            0.99997   0.00746   0.00039
           Y           -0.00746   0.99997   0.00021
           Z           -0.00039  -0.00021   1.00000
 This molecule is an asymmetric top.
 Rotational symmetry number  1.
 Warning -- assumption of classical behavior for rotation
           may cause significant error
 Rotational temperatures (Kelvin)      0.01937     0.00693     0.00524
 Rotational constants (GHZ):           0.40364     0.14431     0.10928
    7 imaginary frequencies ignored.
 Zero-point vibrational energy     976198.1 (Joules/Mol)
                                  233.31694 (Kcal/Mol)
 Warning -- explicit consideration of  31 degrees of freedom as
           vibrations may cause significant error
 Vibrational temperatures:     32.22    65.52    97.47   109.48   139.04
          (Kelvin)            217.65   240.69   252.32   299.22   321.11
                              376.49   384.62   401.21   412.74   432.17
                              449.51   458.32   487.15   513.34   540.60
                              567.77   591.90   608.26   632.58   683.43
                              693.61   724.48   754.56   816.62   835.38
                              879.21   896.66   925.09   952.85   992.15
                             1000.31  1024.91  1061.13  1130.44  1204.06
                             1217.74  1257.33  1328.51  1369.66  1408.77
                             1420.50  1425.78  1453.75  1457.09  1481.19
                             1502.42  1530.93  1537.81  1554.85  1568.70
                             1575.57  1594.92  1603.26  1609.05  1611.28
                             1626.77  1642.85  1657.53  1659.27  1671.93
                             1684.73  1699.44  1713.91  1726.41  1753.83
                             1757.86  1769.17  1788.34  1803.15  1845.57
                             1847.10  1857.98  1863.58  1871.39  1873.46
                             1891.80  1907.14  1919.69  1930.51  1935.65
                             1954.36  1955.67  1970.29  1977.90  1995.23
                             2003.22  2015.16  2041.70  2059.93  2104.29
                             2106.89  2115.44  2124.98  2133.86  2143.14
                             4695.94  4696.89  4711.41  4713.20  4717.20
                             4722.12  4732.90  4740.32  4743.11  4749.30
                             4760.96  4767.17  4773.31  4774.80  4785.84
                             4832.95  4865.17  4878.79  4881.13  4882.25
                             5637.80  5639.94

 Zero-point correction=                           0.371814 (Hartree/Particle)
 Thermal correction to Energy=                    0.390494
 Thermal correction to Enthalpy=                  0.391438
 Thermal correction to Gibbs Free Energy=         0.324747
 Sum of electronic and zero-point Energies=          -1297.555978
 Sum of electronic and thermal Energies=             -1297.537298
 Sum of electronic and thermal Enthalpies=           -1297.536354
 Sum of electronic and thermal Free Energies=        -1297.603046

                     E (Thermal)             CV                S
                      KCal/Mol        Cal/Mol-Kelvin    Cal/Mol-Kelvin
 Total                  245.038             76.138            140.363
 Electronic               0.000              0.000              0.000
 Translational            0.889              2.981             43.384
 Rotational               0.889              2.981             35.178
 Vibrational            243.261             70.176             61.801
 Vibration     1          0.593              1.985              6.410
 Vibration     2          0.595              1.979              5.002
 Vibration     3          0.598              1.970              4.218
 Vibration     4          0.599              1.965              3.989
 Vibration     5          0.603              1.952              3.521
 Vibration     6          0.619              1.901              2.656
 Vibration     7          0.624              1.883              2.466
 Vibration     8          0.627              1.873              2.377
 Vibration     9          0.641              1.828              2.061
 Vibration    10          0.649              1.806              1.933
 Vibration    11          0.669              1.743              1.651
 Vibration    12          0.672              1.733              1.613
 Vibration    13          0.679              1.713              1.541
 Vibration    14          0.684              1.698              1.492
 Vibration    15          0.693              1.673              1.415
 Vibration    16          0.701              1.650              1.349
 Vibration    17          0.705              1.638              1.318
 Vibration    18          0.719              1.598              1.219
 Vibration    19          0.732              1.561              1.136
 Vibration    20          0.747              1.522              1.056
 Vibration    21          0.762              1.482              0.983
 Vibration    22          0.775              1.445              0.922
 Vibration    23          0.785              1.421              0.883
 Vibration    24          0.800              1.384              0.828
 Vibration    25          0.832              1.306              0.724
 Vibration    26          0.838              1.290              0.704
 Vibration    27          0.859              1.242              0.649
 Vibration    28          0.879              1.196              0.600
 Vibration    29          0.924              1.101              0.509
 Vibration    30          0.937              1.073              0.484
 Vibration    31          0.970              1.008              0.431

 Normal termination of Gaussian 09 at Thu Jan 21 05:08:45 2016.
