 Gaussian 09, Revision B.01,
 Gaussian 09:  EM64L-G09RevB.01 12-Aug-2010

 -------------------------------------------------
 # freq=raman b3lyp/6-31+g(2d,p) geom=connectivity
 -------------------------------------------------

 -----------------
 290 6140/6140.com
 -----------------
 Symbolic Z-matrix:
 Charge =  0 Multiplicity = 1

                         Standard orientation:
 ---------------------------------------------------------------------
 Center     Atomic      Atomic             Coordinates (Angstroms)
 Number     Number       Type             X           Y           Z
 ---------------------------------------------------------------------
      1          8           0        4.960984   -0.356011   -0.360369
      2          6           0        3.702887   -0.060006    0.260900
      3          6           0        3.207686    1.284186   -0.247378
      4          8           0        4.146409    2.360609   -0.103421
      5          1           0        5.041947    1.933592   -0.228263
      6          6           0        1.773912    1.589583    0.153958
      7          8           0        1.314340    2.845542   -0.367381
      8          1           0        0.382918    3.044888   -0.060898
      9          6           0        3.065684   -2.588106    0.229036
     10          8           0        4.296909   -3.206335   -0.173868
     11          1           0        4.080797   -4.177407   -0.275258
     12          6           0        2.760818   -1.161773   -0.198031
     13          8           0        1.426997   -0.838394    0.223331
     14          6           0        0.893251    0.412700   -0.234576
     15          8           0       -0.327551    0.572547    0.501871
     16          6           0       -1.577749    0.163836   -0.069554
     17          6           0       -1.964380   -1.232242    0.389870
     18          8           0       -0.874320   -2.144390    0.191146
     19          1           0       -0.090549   -1.584912    0.458811
     20          6           0       -3.311016   -1.526752   -0.250474
     21          8           0       -3.829383   -2.725141    0.346598
     22          1           0       -4.768825   -2.867868    0.034186
     23          6           0       -2.319213    2.628683   -0.067741
     24          8           0       -1.267747    3.248072    0.687568
     25          1           0       -1.450812    4.230968    0.661392
     26          6           0       -2.668879    1.180169    0.230261
     27          8           0       -3.872251    0.864321   -0.484735
     28          6           0       -4.308203   -0.410015    0.012522
     29          8           0       -5.493566   -0.720407   -0.734535
     30          1           0       -6.190623   -0.989080   -0.131603
     31          1           0        5.598642   -0.607075    0.311911
     32          1           0        2.268763   -3.204178   -0.131899
     33          1           0        3.033914   -2.612414    1.298288
     34          1           0        2.766070   -1.149561   -1.267948
     35          1           0        3.795288   -0.056000    1.326895
     36          1           0        3.147274    1.146509   -1.306762
     37          1           0        1.751617    1.663733    1.221152
     38          1           0        0.709256    0.394876   -1.288486
     39          1           0       -3.205548    3.210563    0.076222
     40          1           0       -2.052308    2.689756   -1.102116
     41          1           0       -2.888315    1.112801    1.275349
     42          1           0       -1.451449    0.130185   -1.131541
     43          1           0       -2.130511   -1.179932    1.445599
     44          1           0       -3.190691   -1.667451   -1.304336
     45          1           0       -4.532200   -0.346866    1.056906
 ---------------------------------------------------------------------

 SCF Done:  E(RB3LYP) =  -1297.99404573     A.U. after   13 cycles

 The electronic state is 1-A.
 Alpha  occ. eigenvalues --  -19.19043 -19.18618 -19.18472 -19.18461 -19.17959
 Alpha  occ. eigenvalues --  -19.17068 -19.16646 -19.16258 -19.14990 -19.13844
 Alpha  occ. eigenvalues --  -19.13653 -10.30998 -10.30861 -10.26250 -10.25686
 Alpha  occ. eigenvalues --  -10.25510 -10.25382 -10.25356 -10.24914 -10.24372
 Alpha  occ. eigenvalues --  -10.24353 -10.23980 -10.23960  -1.10214  -1.09640
 Alpha  occ. eigenvalues --   -1.05787  -1.05464  -1.04288  -1.03970  -1.03055
 Alpha  occ. eigenvalues --   -1.02721  -1.01819  -1.00630  -0.99997  -0.82489
 Alpha  occ. eigenvalues --   -0.80416  -0.79369  -0.78575  -0.72041  -0.70176
 Alpha  occ. eigenvalues --   -0.67436  -0.64858  -0.63100  -0.62855  -0.61558
 Alpha  occ. eigenvalues --   -0.60321  -0.56623  -0.55955  -0.55109  -0.54837
 Alpha  occ. eigenvalues --   -0.54156  -0.53625  -0.52812  -0.51705  -0.51480
 Alpha  occ. eigenvalues --   -0.50880  -0.49823  -0.49601  -0.48703  -0.46898
 Alpha  occ. eigenvalues --   -0.45787  -0.45459  -0.44691  -0.43797  -0.43464
 Alpha  occ. eigenvalues --   -0.42667  -0.41731  -0.41158  -0.40211  -0.40080
 Alpha  occ. eigenvalues --   -0.38669  -0.38177  -0.37893  -0.36602  -0.36322
 Alpha  occ. eigenvalues --   -0.35557  -0.35277  -0.34590  -0.33997  -0.33774
 Alpha  occ. eigenvalues --   -0.33071  -0.31593  -0.31143  -0.30596  -0.29968
 Alpha  occ. eigenvalues --   -0.29297  -0.29015  -0.28528  -0.27113  -0.26920
 Alpha  occ. eigenvalues --   -0.26516
 Alpha virt. eigenvalues --   -0.02323  -0.02132  -0.01807  -0.00108   0.00402
 Alpha virt. eigenvalues --    0.01066   0.01994   0.02260   0.03212   0.03584
 Alpha virt. eigenvalues --    0.03958   0.04201   0.04783   0.05440   0.05542

 Mulliken atomic charges:
              1
     1  O   -0.535845
     2  C    0.029314
     3  C    0.166258
     4  O   -0.565448
     5  H    0.345884
     6  C    0.025737
     7  O   -0.586355
     8  H    0.411208
     9  C   -0.330417
    10  O   -0.520945
    11  H    0.338619
    12  C    0.122207
    13  O   -0.234340
    14  C    0.285798
    15  O   -0.272934
    16  C    0.208498
    17  C    0.061512
    18  O   -0.562030
    19  H    0.401685
    20  C    0.110311
    21  O   -0.536210
    22  H    0.325964
    23  C   -0.309819
    24  O   -0.556167
    25  H    0.360348
    26  C    0.021247
    27  O   -0.262595
    28  C    0.102453
    29  O   -0.551650
    30  H    0.337659
    31  H    0.341835
    32  H    0.154727
    33  H    0.143223
    34  H    0.115401
    35  H    0.120957
    36  H    0.106471
    37  H    0.125879
    38  H    0.131219
    39  H    0.147705
    40  H    0.157860
    41  H    0.120381
    42  H    0.113279
    43  H    0.118135
    44  H    0.135381
    45  H    0.137601
 Sum of Mulliken atomic charges =   0.00000

 Dipole moment (field-independent basis, Debye):
    X=             -2.8435    Y=             -0.3844    Z=              1.9378  Tot=              3.4624
 Quadrupole moment (field-independent basis, Debye-Ang):
   XX=           -119.0880   YY=           -136.8655   ZZ=           -139.8991
   XY=            -16.3112   XZ=             -0.6510   YZ=              3.4656

  Exact polarizability: 232.957   0.890 197.766   0.202  -0.622 143.870
 Approx polarizability: 274.106  -0.326 258.700   0.104  -0.937 239.824

 ******    6 imaginary frequencies (negative Signs) ******

                     1                      2                      3
                     A                      A                      A
 Frequencies --  -288.8306              -263.9247              -209.0699
 Red. masses --     1.6823                 1.7226                 1.2414
 Frc consts  --     0.0827                 0.0707                 0.0320
 IR Inten    --     6.9486                 3.6862               107.2446
 Raman Activ --     0.1051                 0.0439                 0.8752

                     4                      5                      6
                     A                      A                      A
 Frequencies --  -201.0581               -70.9647               -50.4961
 Red. masses --     1.1866                 6.3226                 6.1652
 Frc consts  --     0.0283                 0.0188                 0.0093
 IR Inten    --   108.7086                 2.0541                 0.9691
 Raman Activ --     0.7397                 0.0479                 0.0324

                     7                      8                      9
                     A                      A                      A
 Frequencies --    33.5703                44.2730                66.6377
 Red. masses --     6.6015                 6.4517                 6.7537
 Frc consts  --     0.0044                 0.0075                 0.0177
 IR Inten    --     0.3985                 1.5929                 1.1700
 Raman Activ --     0.0287                 0.0576                 0.0272

                    10                     11                     12
                     A                      A                      A
 Frequencies --    79.2303                97.5913               129.6625
 Red. masses --     5.8991                 6.6314                 5.7675
 Frc consts  --     0.0218                 0.0372                 0.0571
 IR Inten    --     3.7934                 1.9599                 1.1501
 Raman Activ --     0.3652                 0.1221                 0.0385

                    13                     14                     15
                     A                      A                      A
 Frequencies --   155.5448               181.8086               185.2144
 Red. masses --     6.2829                 7.6419                 5.6003
 Frc consts  --     0.0896                 0.1488                 0.1132
 IR Inten    --     2.5532                 0.0376                 4.2410
 Raman Activ --     0.4063                 0.4511                 0.4217

                    16                     17                     18
                     A                      A                      A
 Frequencies --   203.2982               232.7732               250.5446
 Red. masses --     6.9725                 6.1848                 4.1817
 Frc consts  --     0.1698                 0.1974                 0.1547
 IR Inten    --     0.0258                 1.5462                17.3832
 Raman Activ --     2.4436                 0.3596                 0.1995

                    19                     20                     21
                     A                      A                      A
 Frequencies --   277.3705               290.1278               305.5041
 Red. masses --     4.8091                 5.8983                 4.6543
 Frc consts  --     0.2180                 0.2925                 0.2559
 IR Inten    --     2.3747                 1.7466                 3.9587
 Raman Activ --     0.1524                 0.5043                 0.6263

                    22                     23                     24
                     A                      A                      A
 Frequencies --   316.2437               323.5148               328.1229
 Red. masses --     5.0346                 6.1993                 4.5566
 Frc consts  --     0.2967                 0.3823                 0.2890
 IR Inten    --     1.6676                 0.6749                 4.1706
 Raman Activ --     1.6932                 1.9366                 1.7090

                    25                     26                     27
                     A                      A                      A
 Frequencies --   332.7277               360.4943               371.1435
 Red. masses --     6.7930                 5.1601                 5.4526
 Frc consts  --     0.4431                 0.3951                 0.4425
 IR Inten    --    11.8280                 7.8585                 1.9451
 Raman Activ --     5.7432                 0.0614                 0.5181

                    28                     29                     30
                     A                      A                      A
 Frequencies --   408.6906               411.8385               427.1960
 Red. masses --     5.3244                 5.2391                 4.9150
 Frc consts  --     0.5240                 0.5235                 0.5285
 IR Inten    --    14.1193                 5.2968                 0.4360
 Raman Activ --     1.6355                 5.4635                 2.5976

                    31                     32                     33
                     A                      A                      A
 Frequencies --   436.9519               468.9905               491.8659
 Red. masses --     6.2551                 4.5043                 5.0322
 Frc consts  --     0.7036                 0.5837                 0.7173
 IR Inten    --     1.7762                 6.0213                 8.0151
 Raman Activ --     3.5569                 5.7422                 0.0909

                    34                     35                     36
                     A                      A                      A
 Frequencies --   511.3719               517.6394               563.8461
 Red. masses --     3.1988                 3.5758                 4.0721
 Frc consts  --     0.4928                 0.5645                 0.7628
 IR Inten    --     5.8451                24.6890                 3.6332
 Raman Activ --     4.8086                 0.8851                 0.9186

                    37                     38                     39
                     A                      A                      A
 Frequencies --   578.2961               586.7324               610.3137
 Red. masses --     2.8321                 6.4800                 4.5600
 Frc consts  --     0.5580                 1.3143                 1.0007
 IR Inten    --    42.5103                 9.5227                 7.5609
 Raman Activ --     0.3410                 0.7671                 0.3462

                    40                     41                     42
                     A                      A                      A
 Frequencies --   631.5789               685.1364               700.2745
 Red. masses --     4.6798                 5.3141                 1.0954
 Frc consts  --     1.0999                 1.4697                 0.3165
 IR Inten    --    38.5417                14.9876                90.7001
 Raman Activ --     1.4019                 0.6502                 1.6351

                    43                     44                     45
                     A                      A                      A
 Frequencies --   749.4808               761.4123               766.3292
 Red. masses --     1.0680                 1.0840                 1.0646
 Frc consts  --     0.3534                 0.3703                 0.3683
 IR Inten    --    85.8232               102.0140                94.8046
 Raman Activ --     1.4098                 1.5884                 1.7129

                    46                     47                     48
                     A                      A                      A
 Frequencies --   814.3874               841.1412               845.2128
 Red. masses --     1.1379                 1.5997                 1.4573
 Frc consts  --     0.4447                 0.6668                 0.6134
 IR Inten    --   109.8984                10.6164                14.9441
 Raman Activ --     3.4712                 0.8412                 0.1338

                    49                     50                     51
                     A                      A                      A
 Frequencies --   871.5926               914.1565               962.8970
 Red. masses --     1.3217                 5.1933                 6.8617
 Frc consts  --     0.5916                 2.5570                 3.7484
 IR Inten    --    34.5160               102.2684                37.0218
 Raman Activ --     0.5135                 1.7921                 1.7187

                    52                     53                     54
                     A                      A                      A
 Frequencies --   969.1968               978.9991               989.6189
 Red. masses --     3.7992                 6.8829                 4.3110
 Frc consts  --     2.1026                 3.8868                 2.4875
 IR Inten    --    63.3474               196.0278                26.2658
 Raman Activ --     1.5751                 0.9280                 0.8865

                    55                     56                     57
                     A                      A                      A
 Frequencies --   999.9604              1003.3646              1022.1585
 Red. masses --     6.0551                 7.0033                 5.8381
 Frc consts  --     3.5673                 4.1540                 3.5938
 IR Inten    --    21.7985               487.0535               120.1318
 Raman Activ --     3.1491                 2.4871                 1.9035

                    58                     59                     60
                     A                      A                      A
 Frequencies --  1033.8496              1049.9388              1065.5966
 Red. masses --     7.7315                 5.3917                 4.4285
 Frc consts  --     4.8689                 3.5019                 2.9627
 IR Inten    --   303.8039               139.2358               109.1878
 Raman Activ --     1.9000                 3.3293                 4.9740

                    61                     62                     63
                     A                      A                      A
 Frequencies --  1067.9672              1077.7337              1082.3942
 Red. masses --     5.1975                 5.5561                 3.7471
 Frc consts  --     3.4927                 3.8023                 2.5865
 IR Inten    --    20.9246                 7.0471                11.3806
 Raman Activ --     9.0357                 4.0146                24.8407

                    64                     65                     66
                     A                      A                      A
 Frequencies --  1097.2484              1103.5124              1109.1704
 Red. masses --     2.2921                 3.0242                 2.7805
 Frc consts  --     1.6259                 2.1698                 2.0154
 IR Inten    --    65.7677                 7.3268                18.4589
 Raman Activ --     2.7577                11.3714                 2.6594

                    67                     68                     69
                     A                      A                      A
 Frequencies --  1118.6624              1135.4306              1138.9302
 Red. masses --     2.7005                 2.2511                 3.3442
 Frc consts  --     1.9911                 1.7099                 2.5559
 IR Inten    --    25.7001                 7.5301                46.6282
 Raman Activ --     4.2052                 7.5305                 1.5015

                    70                     71                     72
                     A                      A                      A
 Frequencies --  1146.9231              1152.5052              1155.7809
 Red. masses --     1.9561                 1.7370                 2.5044
 Frc consts  --     1.5160                 1.3593                 1.9711
 IR Inten    --    38.0329                42.7148                 9.4041
 Raman Activ --     3.5314                 3.4960                 3.5052

                    73                     74                     75
                     A                      A                      A
 Frequencies --  1166.9201              1184.1955              1186.4148
 Red. masses --     2.1170                 1.7502                 1.9122
 Frc consts  --     1.6985                 1.4461                 1.5858
 IR Inten    --     9.4026                16.4877                 8.1335
 Raman Activ --     3.9428                 1.4078                 1.8244

                    76                     77                     78
                     A                      A                      A
 Frequencies --  1203.0596              1210.4239              1237.5440
 Red. masses --     1.3757                 1.4108                 1.2157
 Frc consts  --     1.1732                 1.2178                 1.0970
 IR Inten    --    10.4224                12.2650                 3.7613
 Raman Activ --     0.8621                 2.3280                 1.9919

                    79                     80                     81
                     A                      A                      A
 Frequencies --  1240.5835              1248.3562              1255.2675
 Red. masses --     1.2930                 1.1905                 1.3630
 Frc consts  --     1.1725                 1.0931                 1.2654
 IR Inten    --     1.2693                21.5241                17.0645
 Raman Activ --     0.6340                 0.7741                 0.8356

                    82                     83                     84
                     A                      A                      A
 Frequencies --  1281.7545              1281.8919              1295.4001
 Red. masses --     1.2928                 1.3136                 1.2290
 Frc consts  --     1.2514                 1.2718                 1.2151
 IR Inten    --    22.0739                33.7932                 7.3351
 Raman Activ --     2.4382                 3.6697                 1.8886

                    85                     86                     87
                     A                      A                      A
 Frequencies --  1296.4987              1302.5379              1308.8686
 Red. masses --     1.2951                 1.2318                 1.3159
 Frc consts  --     1.2826                 1.2313                 1.3282
 IR Inten    --     4.4399                20.4741                 9.7929
 Raman Activ --     3.5301                 0.6281                 3.5156

                    88                     89                     90
                     A                      A                      A
 Frequencies --  1321.8270              1322.8039              1331.1714
 Red. masses --     1.3025                 1.2961                 1.2027
 Frc consts  --     1.3408                 1.3363                 1.2557
 IR Inten    --    10.0944                19.0280                16.4882
 Raman Activ --     6.8792                 5.4392                12.4498

                    91                     92                     93
                     A                      A                      A
 Frequencies --  1351.5057              1356.3044              1359.3076
 Red. masses --     1.2268                 1.2201                 1.1980
 Frc consts  --     1.3203                 1.3224                 1.3042
 IR Inten    --    27.5094                22.7887                36.2880
 Raman Activ --     5.2848                 3.0006                 2.7729

                    94                     95                     96
                     A                      A                      A
 Frequencies --  1364.1765              1375.1560              1376.0020
 Red. masses --     1.3697                 1.3634                 1.4013
 Frc consts  --     1.5018                 1.5190                 1.5632
 IR Inten    --     3.4833                14.7904                 2.7325
 Raman Activ --     8.2415                 4.6778                 3.5101

                    97                     98                     99
                     A                      A                      A
 Frequencies --  1383.8938              1387.0416              1392.3293
 Red. masses --     1.2692                 1.4713                 1.4108
 Frc consts  --     1.4321                 1.6677                 1.6114
 IR Inten    --    36.5949                 7.1073                 2.7729
 Raman Activ --     4.7820                 3.9673                 2.2589

                   100                    101                    102
                     A                      A                      A
 Frequencies --  1426.6816              1450.0477              1467.9689
 Red. masses --     1.4687                 1.3180                 1.3783
 Frc consts  --     1.7613                 1.6328                 1.7499
 IR Inten    --    43.4509                19.1258                40.4901
 Raman Activ --     0.6392                 1.0569                 1.3224

                   103                    104                    105
                     A                      A                      A
 Frequencies --  1468.3001              1471.5224              1483.4925
 Red. masses --     1.1330                 1.0823                 1.3223
 Frc consts  --     1.4392                 1.3808                 1.7145
 IR Inten    --     5.8439                 2.8247                31.5362
 Raman Activ --     4.6368                 4.6569                 0.7414

                   106                    107                    108
                     A                      A                      A
 Frequencies --  1492.0794              1517.6635              3248.6418
 Red. masses --     1.3127                 1.2712                 1.0789
 Frc consts  --     1.7219                 1.7250                 6.7084
 IR Inten    --    43.2322                72.9278                32.4301
 Raman Activ --     1.0843                 2.9772                74.1084

                   109                    110                    111
                     A                      A                      A
 Frequencies --  3255.1318              3256.8445              3264.3356
 Red. masses --     1.0637                 1.0588                 1.0809
 Frc consts  --     6.6406                 6.6172                 6.7861
 IR Inten    --   222.9261                28.3322               140.0919
 Raman Activ --    24.7507               120.1627                 1.3257

                   112                    113                    114
                     A                      A                      A
 Frequencies --  3264.9912              3268.6936              3274.7223
 Red. masses --     1.0787                 1.0685                 1.0815
 Frc consts  --     6.7750                 6.7259                 6.8333
 IR Inten    --     9.9596               185.7967                52.4014
 Raman Activ --   198.1154               193.5219               100.1675

                   115                    116                    117
                     A                      A                      A
 Frequencies --  3279.3804              3282.6835              3285.2013
 Red. masses --     1.0814                 1.0842                 1.0847
 Frc consts  --     6.8519                 6.8836                 6.8974
 IR Inten    --    21.1418                47.5670                16.3937
 Raman Activ --    41.9537                11.5693               133.2880

                   118                    119                    120
                     A                      A                      A
 Frequencies --  3291.7724              3296.6662              3301.0219
 Red. masses --     1.0838                 1.0816                 1.0842
 Frc consts  --     6.9191                 6.9257                 6.9605
 IR Inten    --   101.7771               348.5375               158.5112
 Raman Activ --    35.9347                33.1474                18.5105

                   121                    122                    123
                     A                      A                      A
 Frequencies --  3304.3107              3313.2206              3316.5423
 Red. masses --     1.0802                 1.1031                 1.1059
 Frc consts  --     6.9491                 7.1348                 7.1669
 IR Inten    --   316.9668                80.3748                45.2053
 Raman Activ --    66.9107                38.7009                42.2826

                   124                    125                    126
                     A                      A                      A
 Frequencies --  3361.9451              3364.7925              3371.6663
 Red. masses --     1.0652                 1.0650                 1.0672
 Frc consts  --     7.0938                 7.1042                 7.1480
 IR Inten    --    23.8801                40.9108                41.1842
 Raman Activ --   141.3193                91.8031               182.2870

                   127                    128                    129
                     A                      A                      A
 Frequencies --  3371.7299              3890.9080              3891.3709
 Red. masses --     1.0683                 1.0674                 1.0675
 Frc consts  --     7.1554                 9.5212                 9.5237
 IR Inten    --    59.2596                84.9165                63.7350
 Raman Activ --    96.4676                89.3319               107.9445

 - Thermochemistry -
 -------------------
 Temperature   298.150 Kelvin.  Pressure   1.00000 Atm.
 Atom     1 has atomic number  8 and mass  15.99491

 Molecular mass:   342.11621 amu.
 Principal axes and moments of inertia in atomic units:
                           1         2         3
     Eigenvalues --  4449.04812********************
           X            0.99997  -0.00779  -0.00070
           Y            0.00779   0.99997  -0.00040
           Z            0.00070   0.00040   1.00000
 This molecule is an asymmetric top.
 Rotational symmetry number  1.
 Warning -- assumption of classical behavior for rotation
           may cause significant error
 Rotational temperatures (Kelvin)      0.01947     0.00703     0.00530
 Rotational constants (GHZ):           0.40565     0.14653     0.11043
    6 imaginary frequencies ignored.
 Zero-point vibrational energy     976016.6 (Joules/Mol)
                                  233.27357 (Kcal/Mol)
 Warning -- explicit consideration of  33 degrees of freedom as
           vibrations may cause significant error
 Vibrational temperatures:     48.30    63.70    95.88   113.99   140.41
          (Kelvin)            186.56   223.79   261.58   266.48   292.50
                              334.91   360.48   399.07   417.43   439.55
                              455.00   465.47   472.10   478.72   518.67
                              533.99   588.01   592.54   614.64   628.68
                              674.77   707.68   735.75   744.77   811.25
                              832.04   844.18   878.10   908.70   985.76
                             1007.54  1078.33  1095.50  1102.58  1171.72
                             1210.21  1216.07  1254.03  1315.27  1385.39
                             1394.46  1408.56  1423.84  1438.72  1443.62
                             1470.66  1487.48  1510.63  1533.15  1536.56
                             1550.62  1557.32  1578.69  1587.71  1595.85
                             1609.50  1633.63  1638.66  1650.16  1658.20
                             1662.91  1678.94  1703.79  1706.98  1730.93
                             1741.53  1780.55  1784.92  1796.10  1806.05
                             1844.16  1844.35  1863.79  1865.37  1874.06
                             1883.17  1901.81  1903.22  1915.26  1944.51
                             1951.42  1955.74  1962.74  1978.54  1979.76
                             1991.11  1995.64  2003.25  2052.67  2086.29
                             2112.08  2112.55  2117.19  2134.41  2146.77
                             2183.58  4674.07  4683.40  4685.87  4696.64
                             4697.59  4702.92  4711.59  4718.29  4723.04
                             4726.67  4736.12  4743.16  4749.43  4754.16
                             4766.98  4771.76  4837.08  4841.18  4851.07
                             4851.16  5598.14  5598.81

 Zero-point correction=                           0.371745 (Hartree/Particle)
 Thermal correction to Energy=                    0.390903
 Thermal correction to Enthalpy=                  0.391847
 Thermal correction to Gibbs Free Energy=         0.324541
 Sum of electronic and zero-point Energies=          -1297.622301
 Sum of electronic and thermal Energies=             -1297.603143
 Sum of electronic and thermal Enthalpies=           -1297.602199
 Sum of electronic and thermal Free Energies=        -1297.669504

                     E (Thermal)             CV                S
                      KCal/Mol        Cal/Mol-Kelvin    Cal/Mol-Kelvin
 Total                  245.295             77.712            141.656
 Electronic               0.000              0.000              0.000
 Translational            0.889              2.981             43.384
 Rotational               0.889              2.981             35.148
 Vibrational            243.518             71.750             63.124
 Vibration     1          0.594              1.983              5.606
 Vibration     2          0.595              1.980              5.058
 Vibration     3          0.598              1.970              4.250
 Vibration     4          0.600              1.963              3.910
 Vibration     5          0.603              1.951              3.502
 Vibration     6          0.612              1.924              2.951
 Vibration     7          0.620              1.896              2.603
 Vibration     8          0.630              1.864              2.310
 Vibration     9          0.631              1.860              2.275
 Vibration    10          0.639              1.835              2.103
 Vibration    11          0.654              1.791              1.857
 Vibration    12          0.663              1.762              1.727
 Vibration    13          0.678              1.715              1.550
 Vibration    14          0.686              1.692              1.473
 Vibration    15          0.696              1.663              1.387
 Vibration    16          0.703              1.643              1.329
 Vibration    17          0.708              1.628              1.292
 Vibration    18          0.711              1.619              1.269
 Vibration    19          0.715              1.610              1.247
 Vibration    20          0.735              1.554              1.120
 Vibration    21          0.743              1.531              1.075
 Vibration    22          0.773              1.451              0.931
 Vibration    23          0.776              1.445              0.920
 Vibration    24          0.789              1.411              0.868
 Vibration    25          0.797              1.390              0.836
 Vibration    26          0.826              1.319              0.740
 Vibration    27          0.848              1.268              0.679
 Vibration    28          0.866              1.225              0.630
 Vibration    29          0.873              1.211              0.615
 Vibration    30          0.920              1.109              0.516
 Vibration    31          0.935              1.078              0.489
 Vibration    32          0.944              1.060              0.473
 Vibration    33          0.969              1.010              0.432

 Normal termination of Gaussian 09 at Mon Mar 21 22:39:38 2016.
