 Gaussian 09, Revision B.01,
 Gaussian 09:  EM64L-G09RevB.01 12-Aug-2010

 ------------------------------------------------
 # freq=raman b3lyp/6-31+g(d,p) geom=connectivity
 ------------------------------------------------

 ------------
 450 8000.com
 ------------
 Symbolic Z-matrix:
 Charge =  0 Multiplicity = 1

                         Standard orientation:
 ---------------------------------------------------------------------
 Center     Atomic      Atomic             Coordinates (Angstroms)
 Number     Number       Type             X           Y           Z
 ---------------------------------------------------------------------
      1          8           0       -5.034244    0.548462   -0.634153
      2          6           0       -3.814790    0.147752    0.006672
      3          6           0       -3.288560   -1.240677   -0.319758
      4          8           0       -4.305146   -2.157284    0.112308
      5          1           0       -5.167392   -1.696859   -0.100039
      6          6           0       -1.853383   -1.604136    0.022823
      7          8           0       -1.328734   -2.465870   -0.996402
      8          1           0       -1.938726   -3.165341   -1.369110
      9          6           0       -3.166761    2.566474    0.547870
     10          8           0       -2.114163    3.506678    0.288949
     11          1           0       -2.205573    4.292969    0.900379
     12          6           0       -2.740714    1.223007   -0.022726
     13          8           0       -1.502272    0.831746    0.587323
     14          6           0       -0.985709   -0.356312   -0.028921
     15          8           0        0.154361   -0.519266    0.827398
     16          6           0        1.401650   -0.323038    0.145860
     17          6           0        1.891098    1.116195    0.139791
     18          8           0        0.985073    1.895375   -0.655297
     19          1           0        0.124809    2.047780   -0.167482
     20          6           0        3.277206    1.257095   -0.466392
     21          8           0        3.717805    2.623140   -0.466517
     22          1           0        3.070365    3.118782   -1.044844
     23          6           0        1.958238   -2.651611    0.897228
     24          8           0        1.685877   -3.196250   -0.402010
     25          1           0        0.836821   -2.766095   -0.708733
     26          6           0        2.446470   -1.216087    0.793774
     27          8           0        3.728442   -0.999369    0.184895
     28          6           0        4.253821    0.335201    0.245156
     29          8           0        5.422166    0.371427   -0.587726
     30          1           0        6.130858   -0.120371   -0.166429
     31          1           0       -5.782358    0.271867   -0.099905
     32          1           0       -3.323312    2.479045    1.602738
     33          1           0       -4.068670    2.892293    0.073210
     34          1           0       -2.523328    1.393805   -1.056395
     35          1           0       -4.082609    0.080024    1.040396
     36          1           0       -3.316802   -1.291058   -1.388198
     37          1           0       -1.795111   -2.070277    0.984184
     38          1           0       -0.673433   -0.153990   -1.032140
     39          1           0        2.709193   -3.244438    1.376313
     40          1           0        1.063467   -2.676994    1.483437
     41          1           0        2.543342   -0.871212    1.802029
     42          1           0        1.278353   -0.636166   -0.869841
     43          1           0        1.900517    1.493178    1.141137
     44          1           0        3.217407    0.938221   -1.486021
     45          1           0        4.457466    0.651329    1.246900
 ---------------------------------------------------------------------

 SCF Done:  E(RB3LYP) =  -1297.94415180     A.U. after   14 cycles

 The electronic state is 1-A.
 Alpha  occ. eigenvalues --  -19.21227 -19.19974 -19.19808 -19.19440 -19.18458
 Alpha  occ. eigenvalues --  -19.18114 -19.16530 -19.16322 -19.15695 -19.15246
 Alpha  occ. eigenvalues --  -19.14480 -10.31775 -10.29564 -10.28265 -10.27924
 Alpha  occ. eigenvalues --  -10.27301 -10.26837 -10.25683 -10.24392 -10.24240
 Alpha  occ. eigenvalues --  -10.23901 -10.23608 -10.22814  -1.10781  -1.08552
 Alpha  occ. eigenvalues --   -1.06881  -1.06209  -1.04762  -1.04453  -1.03242
 Alpha  occ. eigenvalues --   -1.02454  -1.01115  -1.00286  -0.99856  -0.82602
 Alpha  occ. eigenvalues --   -0.81982  -0.78542  -0.77487  -0.72898  -0.70003
 Alpha  occ. eigenvalues --   -0.68437  -0.65699  -0.64103  -0.62195  -0.61460
 Alpha  occ. eigenvalues --   -0.59507  -0.58226  -0.57295  -0.55220  -0.54701
 Alpha  occ. eigenvalues --   -0.54002  -0.53305  -0.53096  -0.52427  -0.51758
 Alpha  occ. eigenvalues --   -0.50539  -0.49593  -0.49229  -0.48104  -0.46917
 Alpha  occ. eigenvalues --   -0.46341  -0.45473  -0.44839  -0.44227  -0.43729
 Alpha  occ. eigenvalues --   -0.43037  -0.42620  -0.40914  -0.40200  -0.39416
 Alpha  occ. eigenvalues --   -0.39009  -0.37999  -0.37430  -0.36435  -0.36143
 Alpha  occ. eigenvalues --   -0.35750  -0.35485  -0.34468  -0.34389  -0.33521
 Alpha  occ. eigenvalues --   -0.32286  -0.31731  -0.31436  -0.31180  -0.30433
 Alpha  occ. eigenvalues --   -0.29952  -0.29357  -0.28347  -0.27244  -0.26780
 Alpha  occ. eigenvalues --   -0.25894
 Alpha virt. eigenvalues --   -0.04487  -0.01955  -0.01292   0.00348   0.00911
 Alpha virt. eigenvalues --    0.01460   0.01582   0.02136   0.02533   0.02907
 Alpha virt. eigenvalues --    0.03941   0.03965   0.05027   0.05297   0.05755

 Mulliken atomic charges:
              1
     1  O   -0.505707
     2  C   -0.463887
     3  C    0.188705
     4  O   -0.485060
     5  H    0.322242
     6  C    0.270820
     7  O   -0.616028
     8  H    0.402843
     9  C   -0.068353
    10  O   -0.545726
    11  H    0.356816
    12  C    0.267392
    13  O   -0.372330
    14  C    0.100092
    15  O   -0.345636
    16  C   -0.300073
    17  C    0.040380
    18  O   -0.578218
    19  H    0.411391
    20  C   -0.248905
    21  O   -0.476060
    22  H    0.365047
    23  C   -0.227984
    24  O   -0.474724
    25  H    0.386867
    26  C    0.300753
    27  O   -0.347214
    28  C    0.435964
    29  O   -0.501011
    30  H    0.347514
    31  H    0.355514
    32  H    0.132368
    33  H    0.155709
    34  H    0.135672
    35  H    0.144739
    36  H    0.153825
    37  H    0.167612
    38  H    0.154581
    39  H    0.137550
    40  H    0.146470
    41  H    0.114663
    42  H    0.139870
    43  H    0.142615
    44  H    0.152928
    45  H    0.125977
 Sum of Mulliken atomic charges =   0.00000

 Dipole moment (field-independent basis, Debye):
    X=             -8.1644    Y=              0.9706    Z=              3.3743  Tot=              8.8874
 Quadrupole moment (field-independent basis, Debye-Ang):
   XX=           -121.1262   YY=           -145.1423   ZZ=           -136.7037
   XY=             -6.7383   XZ=              6.8131   YZ=              5.2986

  Exact polarizability: 222.026   2.289 189.186   0.381  -0.108 145.749
 Approx polarizability: 262.125   1.305 245.048  -0.169   0.884 236.947

 ******    7 imaginary frequencies (negative Signs) ******

                     1                      2                      3
                     A                      A                      A
 Frequencies --  -215.0998              -207.5030              -190.7845
 Red. masses --     1.0595                 1.4035                 1.9929
 Frc consts  --     0.0289                 0.0356                 0.0427
 IR Inten    --   111.3488               114.3938                 3.6779
 Raman Activ --     2.0406                 0.4050                 0.1118

                     4                      5                      6
                     A                      A                      A
 Frequencies --   -98.2213               -57.2321               -45.0058
 Red. masses --     5.7993                 6.4359                 6.0062
 Frc consts  --     0.0330                 0.0124                 0.0072
 IR Inten    --     1.1854                 3.0379                 2.1937
 Raman Activ --     0.0086                 0.0546                 0.1222

                     7                      8                      9
                     A                      A                      A
 Frequencies --   -19.4262                29.2262                52.5413
 Red. masses --     6.3190                 5.8146                 5.4889
 Frc consts  --     0.0014                 0.0029                 0.0089
 IR Inten    --     0.8766                 1.5937                 1.3738
 Raman Activ --     0.0756                 0.0548                 0.1394

                    10                     11                     12
                     A                      A                      A
 Frequencies --    70.4816                90.5485               119.7997
 Red. masses --     4.9529                 5.7756                 5.1915
 Frc consts  --     0.0145                 0.0279                 0.0439
 IR Inten    --     0.7032                 4.4028                 3.3071
 Raman Activ --     0.3098                 0.1009                 0.1268

                    13                     14                     15
                     A                      A                      A
 Frequencies --   129.2531               147.7754               176.4996
 Red. masses --     5.8077                 4.7217                 5.6060
 Frc consts  --     0.0572                 0.0608                 0.1029
 IR Inten    --     2.7568                 0.4186                 6.7155
 Raman Activ --     0.1253                 0.4637                 0.8657

                    16                     17                     18
                     A                      A                      A
 Frequencies --   203.2826               220.0313               240.8306
 Red. masses --     3.4557                 4.3160                 5.2146
 Frc consts  --     0.0841                 0.1231                 0.1782
 IR Inten    --     0.2459                 6.1773                 3.5023
 Raman Activ --     0.2749                 0.3038                 2.3979

                    19                     20                     21
                     A                      A                      A
 Frequencies --   262.8446               280.8585               292.3724
 Red. masses --     5.8310                 5.7974                 4.9078
 Frc consts  --     0.2374                 0.2694                 0.2472
 IR Inten    --     0.2447                 8.0456                 5.9987
 Raman Activ --     0.7161                 0.4070                 0.8519

                    22                     23                     24
                     A                      A                      A
 Frequencies --   296.9947               308.7511               335.8700
 Red. masses --     5.1726                 3.9806                 5.5217
 Frc consts  --     0.2688                 0.2236                 0.3670
 IR Inten    --     2.5321                16.0845                 4.6621
 Raman Activ --     0.3853                 0.2676                 2.2848

                    25                     26                     27
                     A                      A                      A
 Frequencies --   363.0804               365.9026               392.6309
 Red. masses --     4.6219                 6.5976                 4.1307
 Frc consts  --     0.3590                 0.5204                 0.3752
 IR Inten    --    10.2038                 3.9421                10.7398
 Raman Activ --     5.8385                 0.5945                 0.9507

                    28                     29                     30
                     A                      A                      A
 Frequencies --   410.8191               420.3038               435.5375
 Red. masses --     5.4953                 5.3876                 5.6473
 Frc consts  --     0.5464                 0.5608                 0.6312
 IR Inten    --     9.6570                 0.0994                 1.7715
 Raman Activ --     2.6879                 3.4459                 0.9843

                    31                     32                     33
                     A                      A                      A
 Frequencies --   462.9256               495.0619               507.7646
 Red. masses --     4.7190                 3.8653                 4.8002
 Frc consts  --     0.5958                 0.5581                 0.7292
 IR Inten    --    10.3522                 6.4282                 4.7452
 Raman Activ --     0.7651                 3.1372                 5.4056

                    34                     35                     36
                     A                      A                      A
 Frequencies --   527.8437               539.5706               562.0393
 Red. masses --     4.0387                 4.4117                 3.8342
 Frc consts  --     0.6630                 0.7568                 0.7136
 IR Inten    --    12.3160                23.1081                44.6992
 Raman Activ --     2.1461                 7.5129                 0.3468

                    37                     38                     39
                     A                      A                      A
 Frequencies --   580.4944               605.0052               631.0985
 Red. masses --     3.0664                 3.0827                 2.3888
 Frc consts  --     0.6088                 0.6648                 0.5606
 IR Inten    --    30.3599                13.2876                11.6032
 Raman Activ --     0.5850                 0.5631                 0.6605

                    40                     41                     42
                     A                      A                      A
 Frequencies --   637.7094               663.6545               692.0250
 Red. masses --     1.4465                 4.0854                 1.0984
 Frc consts  --     0.3466                 1.0602                 0.3099
 IR Inten    --    94.7336                 8.9572               111.3660
 Raman Activ --     1.6994                 0.4079                 2.1192

                    43                     44                     45
                     A                      A                      A
 Frequencies --   698.4131               708.7718               715.6348
 Red. masses --     2.7342                 1.1045                 1.0964
 Frc consts  --     0.7858                 0.3269                 0.3308
 IR Inten    --    17.4281               128.7370               102.6176
 Raman Activ --     0.2545                 1.8704                 1.4360

                    46                     47                     48
                     A                      A                      A
 Frequencies --   775.2499               805.7253               837.3624
 Red. masses --     1.1507                 1.1015                 2.3985
 Frc consts  --     0.4075                 0.4213                 0.9909
 IR Inten    --    98.6476               131.2236                 7.5646
 Raman Activ --     2.3371                 3.7856                 2.4659

                    49                     50                     51
                     A                      A                      A
 Frequencies --   863.7517               913.6439               957.3600
 Red. masses --     2.5237                 2.8657                 6.3260
 Frc consts  --     1.1094                 1.4094                 3.4161
 IR Inten    --     5.4870                16.2412               132.8107
 Raman Activ --     5.9808                 1.9335                 3.4932

                    52                     53                     54
                     A                      A                      A
 Frequencies --   974.6934               993.9373              1006.4802
 Red. masses --     7.3363                 6.0784                 3.4748
 Frc consts  --     4.1064                 3.5380                 2.0739
 IR Inten    --   256.9656                43.1105                35.8597
 Raman Activ --     1.8464                 3.0051                 4.6481

                    55                     56                     57
                     A                      A                      A
 Frequencies --  1010.6461              1017.7950              1028.0190
 Red. masses --     4.6984                 5.1933                 2.9019
 Frc consts  --     2.8275                 3.1697                 1.8069
 IR Inten    --    40.7241               263.9983               143.2398
 Raman Activ --     1.2889                 1.7522                 0.9843

                    58                     59                     60
                     A                      A                      A
 Frequencies --  1037.5549              1046.5349              1050.9556
 Red. masses --     4.0314                 4.4839                 3.1829
 Frc consts  --     2.5570                 2.8934                 2.0713
 IR Inten    --   137.2387                59.2546               196.1587
 Raman Activ --     1.6915                 1.5139                 7.0023

                    61                     62                     63
                     A                      A                      A
 Frequencies --  1059.2214              1076.3632              1083.2748
 Red. masses --     5.0133                 4.7836                 3.0846
 Frc consts  --     3.3140                 3.2653                 2.1327
 IR Inten    --    46.0520                61.2605                45.5675
 Raman Activ --     8.6577                 3.1359                 7.5584

                    64                     65                     66
                     A                      A                      A
 Frequencies --  1096.8441              1103.2983              1105.5923
 Red. masses --     2.5706                 2.6055                 2.2595
 Frc consts  --     1.8221                 1.8687                 1.6272
 IR Inten    --    19.9010                56.0890                43.8491
 Raman Activ --     1.5610                 2.7392                 2.1282

                    67                     68                     69
                     A                      A                      A
 Frequencies --  1115.4130              1119.6356              1139.9178
 Red. masses --     2.5860                 2.5650                 2.1105
 Frc consts  --     1.8956                 1.8945                 1.6158
 IR Inten    --    36.0387                67.8962                34.8422
 Raman Activ --     3.2939                 5.3912                 5.3877

                    70                     71                     72
                     A                      A                      A
 Frequencies --  1141.2295              1146.2115              1158.2094
 Red. masses --     2.4321                 1.8821                 3.2445
 Frc consts  --     1.8663                 1.4569                 2.5643
 IR Inten    --    22.8433                24.1141                23.8158
 Raman Activ --     2.9787                 1.3285                 2.1586

                    73                     74                     75
                     A                      A                      A
 Frequencies --  1172.2789              1177.7249              1202.1778
 Red. masses --     1.7915                 1.9892                 1.5250
 Frc consts  --     1.4506                 1.6256                 1.2986
 IR Inten    --     6.6748                13.1696                 6.7607
 Raman Activ --     5.5659                 3.4824                 2.9432

                    76                     77                     78
                     A                      A                      A
 Frequencies --  1204.1017              1217.4196              1233.0944
 Red. masses --     1.5761                 1.3517                 1.4280
 Frc consts  --     1.3464                 1.1804                 1.2793
 IR Inten    --     6.8621                24.9307                 5.0885
 Raman Activ --     2.5236                 2.8461                 2.3751

                    79                     80                     81
                     A                      A                      A
 Frequencies --  1237.8879              1242.8801              1246.2044
 Red. masses --     1.1957                 1.2157                 1.2531
 Frc consts  --     1.0795                 1.1065                 1.1466
 IR Inten    --    13.5917                 2.5928                 8.5415
 Raman Activ --     1.8832                 6.7208                 1.6345

                    82                     83                     84
                     A                      A                      A
 Frequencies --  1250.2818              1263.8668              1273.9361
 Red. masses --     1.3474                 1.2138                 1.3104
 Frc consts  --     1.2410                 1.1423                 1.2530
 IR Inten    --     8.1671                 6.1103                21.8664
 Raman Activ --     2.6128                 0.9656                 2.9624

                    85                     86                     87
                     A                      A                      A
 Frequencies --  1281.9976              1291.5503              1308.1015
 Red. masses --     1.2872                 1.2401                 1.2593
 Frc consts  --     1.2465                 1.2188                 1.2696
 IR Inten    --    10.8113                13.6257                10.8085
 Raman Activ --     4.6599                 3.4473                 1.5271

                    88                     89                     90
                     A                      A                      A
 Frequencies --  1314.5545              1331.3781              1334.1884
 Red. masses --     1.2651                 1.2937                 1.3793
 Frc consts  --     1.2881                 1.3511                 1.4466
 IR Inten    --    84.9297                22.3844                 5.0397
 Raman Activ --     4.8497                 1.7093                 3.2778

                    91                     92                     93
                     A                      A                      A
 Frequencies --  1340.2210              1344.0475              1353.8856
 Red. masses --     1.3701                 1.2661                 1.3612
 Frc consts  --     1.4499                 1.3475                 1.4701
 IR Inten    --    21.8341                17.0788                47.4850
 Raman Activ --     0.9056                 7.8189                 3.0369

                    94                     95                     96
                     A                      A                      A
 Frequencies --  1356.0858              1360.5777              1373.5998
 Red. masses --     1.2403                 1.4943                 1.5705
 Frc consts  --     1.3439                 1.6298                 1.7459
 IR Inten    --    15.3323                24.6554                 1.8728
 Raman Activ --     4.1483                 5.5704                 2.1993

                    97                     98                     99
                     A                      A                      A
 Frequencies --  1377.9176              1389.1094              1409.0620
 Red. masses --     1.6668                 1.4729                 1.4527
 Frc consts  --     1.8646                 1.6746                 1.6993
 IR Inten    --    11.1266                19.8816                 3.6638
 Raman Activ --     3.4914                 6.2806                 5.8462

                   100                    101                    102
                     A                      A                      A
 Frequencies --  1423.3761              1432.1561              1437.7804
 Red. masses --     1.2866                 1.4824                 1.4400
 Frc consts  --     1.5358                 1.7915                 1.7538
 IR Inten    --     0.3660                 7.9554                16.7365
 Raman Activ --     7.3536                 1.3061                 3.6719

                   103                    104                    105
                     A                      A                      A
 Frequencies --  1454.1451              1464.5194              1465.0592
 Red. masses --     1.0933                 1.5533                 1.4566
 Frc consts  --     1.3621                 1.9628                 1.8421
 IR Inten    --     7.6832                22.6143               100.0248
 Raman Activ --     4.4498                 3.4585                 2.6019

                   106                    107                    108
                     A                      A                      A
 Frequencies --  1473.2103              1478.8358              3260.6722
 Red. masses --     1.0794                 1.1366                 1.0803
 Frc consts  --     1.3803                 1.4645                 6.7671
 IR Inten    --     5.1735                46.1651                 0.7352
 Raman Activ --     6.3341                 3.9390               126.3687

                   109                    110                    111
                     A                      A                      A
 Frequencies --  3269.1713              3272.6451              3274.9828
 Red. masses --     1.0785                 1.0700                 1.0699
 Frc consts  --     6.7909                 6.7518                 6.7607
 IR Inten    --    14.1949                28.6514                 6.5567
 Raman Activ --    35.7798                59.3375                69.8138

                   112                    113                    114
                     A                      A                      A
 Frequencies --  3287.7453              3288.7569              3293.0550
 Red. masses --     1.0830                 1.0610                 1.0840
 Frc consts  --     6.8975                 6.7614                 6.9258
 IR Inten    --    52.1742                55.5622                 1.0049
 Raman Activ --    21.1364               165.8153                43.6380

                   115                    116                    117
                     A                      A                      A
 Frequencies --  3298.3527              3303.6761              3311.7295
 Red. masses --     1.0846                 1.0860                 1.0864
 Frc consts  --     6.9519                 6.9836                 7.0200
 IR Inten    --    12.7650                 1.4085                 2.5180
 Raman Activ --   115.6995                27.9517                80.7983

                   118                    119                    120
                     A                      A                      A
 Frequencies --  3316.5859              3322.8914              3339.6553
 Red. masses --     1.0865                 1.0861                 1.1094
 Frc consts  --     7.0412                 7.0659                 7.2900
 IR Inten    --    74.7296                26.9654                27.3387
 Raman Activ --     9.5960                20.7749                56.3625

                   121                    122                    123
                     A                      A                      A
 Frequencies --  3348.0492              3363.2929              3377.2413
 Red. masses --     1.1059                 1.0679                 1.0699
 Frc consts  --     7.3040                 7.1174                 7.1901
 IR Inten    --    51.5376               219.6148               149.7332
 Raman Activ --   101.8363               143.5764               141.2820

                   124                    125                    126
                     A                      A                      A
 Frequencies --  3378.2288              3391.0805              3398.6240
 Red. masses --     1.0655                 1.0676                 1.0682
 Frc consts  --     7.1645                 7.2335                 7.2694
 IR Inten    --     7.1497                40.5683                71.5014
 Raman Activ --    48.8801               152.9626               113.5773

                   127                    128                    129
                     A                      A                      A
 Frequencies --  3402.3126              3905.7975              3915.3392
 Red. masses --     1.0658                 1.0680                 1.0667
 Frc consts  --     7.2688                 9.5991                 9.6344
 IR Inten    --    44.0159                62.9614                42.8134
 Raman Activ --    74.3114                92.1027               163.9143

 - Thermochemistry -
 -------------------
 Temperature   298.150 Kelvin.  Pressure   1.00000 Atm.
 Atom     1 has atomic number  8 and mass  15.99491

 Molecular mass:   342.11621 amu.
 Principal axes and moments of inertia in atomic units:
                           1         2         3
     Eigenvalues --  4408.87192********************
           X            0.99998  -0.00540   0.00160
           Y            0.00540   0.99998   0.00107
           Z           -0.00161  -0.00106   1.00000
 This molecule is an asymmetric top.
 Rotational symmetry number  1.
 Warning -- assumption of classical behavior for rotation
           may cause significant error
 Rotational temperatures (Kelvin)      0.01965     0.00745     0.00568
 Rotational constants (GHZ):           0.40934     0.15520     0.11842
    7 imaginary frequencies ignored.
 Zero-point vibrational energy     976010.8 (Joules/Mol)
                                  233.27218 (Kcal/Mol)
 Warning -- explicit consideration of  31 degrees of freedom as
           vibrations may cause significant error
 Vibrational temperatures:     42.05    75.60   101.41   130.28   172.36
          (Kelvin)            185.97   212.62   253.94   292.48   316.58
                              346.50   378.17   404.09   420.66   427.31
                              444.22   483.24   522.39   526.45   564.91
                              591.08   604.72   626.64   666.05   712.28
                              730.56   759.45   776.32   808.65   835.20
                              870.47   908.01   917.52   954.85   995.67
                             1004.86  1019.76  1029.64  1115.41  1159.26
                             1204.78  1242.74  1314.53  1377.43  1402.36
                             1430.05  1448.10  1454.09  1464.38  1479.09
                             1492.81  1505.73  1512.09  1523.98  1548.64
                             1558.59  1578.11  1587.40  1590.70  1604.83
                             1610.90  1640.09  1641.97  1649.14  1666.40
                             1686.65  1694.48  1729.66  1732.43  1751.59
                             1774.15  1781.04  1788.23  1793.01  1798.87
                             1818.42  1832.91  1844.51  1858.25  1882.06
                             1891.35  1915.55  1919.60  1928.28  1933.78
                             1947.94  1951.10  1957.57  1976.30  1982.51
                             1998.62  2027.32  2047.92  2060.55  2068.64
                             2092.19  2107.11  2107.89  2119.62  2127.71
                             4691.37  4703.60  4708.60  4711.96  4730.33
                             4731.78  4737.97  4745.59  4753.25  4764.83
                             4771.82  4780.89  4805.01  4817.09  4839.02
                             4859.09  4860.51  4879.00  4889.86  4895.16
                             5619.56  5633.29

 Zero-point correction=                           0.371743 (Hartree/Particle)
 Thermal correction to Energy=                    0.390288
 Thermal correction to Enthalpy=                  0.391232
 Thermal correction to Gibbs Free Energy=         0.325317
 Sum of electronic and zero-point Energies=          -1297.572409
 Sum of electronic and thermal Energies=             -1297.553864
 Sum of electronic and thermal Enthalpies=           -1297.552920
 Sum of electronic and thermal Free Energies=        -1297.618835

                     E (Thermal)             CV                S
                      KCal/Mol        Cal/Mol-Kelvin    Cal/Mol-Kelvin
 Total                  244.909             76.073            138.730
 Electronic               0.000              0.000              0.000
 Translational            0.889              2.981             43.384
 Rotational               0.889              2.981             35.012
 Vibrational            243.132             70.111             60.333
 Vibration     1          0.593              1.984              5.881
 Vibration     2          0.596              1.977              4.719
 Vibration     3          0.598              1.968              4.140
 Vibration     4          0.602              1.956              3.648
 Vibration     5          0.609              1.933              3.104
 Vibration     6          0.612              1.924              2.957
 Vibration     7          0.617              1.905              2.701
 Vibration     8          0.628              1.871              2.365
 Vibration     9          0.639              1.835              2.103
 Vibration    10          0.647              1.811              1.959
 Vibration    11          0.658              1.778              1.797
 Vibration    12          0.670              1.741              1.643
 Vibration    13          0.681              1.709              1.528
 Vibration    14          0.688              1.688              1.460
 Vibration    15          0.691              1.679              1.434
 Vibration    16          0.698              1.657              1.369
 Vibration    17          0.717              1.604              1.232
 Vibration    18          0.737              1.548              1.109
 Vibration    19          0.739              1.542              1.097
 Vibration    20          0.760              1.486              0.990
 Vibration    21          0.775              1.447              0.924
 Vibration    22          0.783              1.426              0.891
 Vibration    23          0.796              1.393              0.841
 Vibration    24          0.821              1.332              0.758
 Vibration    25          0.851              1.261              0.671
 Vibration    26          0.863              1.233              0.639
 Vibration    27          0.883              1.188              0.592
 Vibration    28          0.895              1.163              0.566
 Vibration    29          0.918              1.113              0.520
 Vibration    30          0.937              1.073              0.484
 Vibration    31          0.964              1.021              0.441

 Normal termination of Gaussian 09 at Tue Mar  1 16:21:31 2016.
