 Gaussian 09, Revision B.01,
 Gaussian 09:  EM64L-G09RevB.01 12-Aug-2010

 -------------------------------------------------
 # freq=raman b3lyp/6-31+g(2d,p) geom=connectivity
 -------------------------------------------------

 -----------------
 493 5743/5743.com
 -----------------
 Symbolic Z-matrix:
 Charge =  0 Multiplicity = 1

                         Standard orientation:
 ---------------------------------------------------------------------
 Center     Atomic      Atomic             Coordinates (Angstroms)
 Number     Number       Type             X           Y           Z
 ---------------------------------------------------------------------
      1          8           0        5.082191   -0.514486   -0.464977
      2          6           0        3.796057   -0.113033    0.027229
      3          6           0        3.265274    1.270539   -0.312670
      4          8           0        4.204963    2.234730    0.184307
      5          1           0        5.082301    1.883653   -0.142953
      6          6           0        1.899111    1.564766    0.284320
      7          8           0        1.481474    2.823188   -0.265353
      8          1           0        0.484377    2.891866   -0.275805
      9          6           0        2.978323   -2.560268    0.249011
     10          8           0        4.171259   -3.256961   -0.140738
     11          1           0        3.931752   -4.227659   -0.135420
     12          6           0        2.747639   -1.163092   -0.302145
     13          8           0        1.497354   -0.794884    0.299439
     14          6           0        0.914627    0.462848   -0.069894
     15          8           0       -0.300026    0.524930    0.692648
     16          6           0       -1.523277    0.280270   -0.015645
     17          6           0       -1.997736   -1.112434    0.365669
     18          8           0       -1.086947   -2.060223   -0.211979
     19          1           0       -0.205345   -1.654588    0.026919
     20          6           0       -3.369228   -1.572222   -0.100746
     21          8           0       -3.887173   -2.796702    0.440505
     22          1           0       -4.860257   -2.920771    0.243053
     23          6           0       -2.407008    2.662535   -0.201010
     24          8           0       -1.289135    3.422771    0.278777
     25          1           0       -1.487135    4.401387    0.328673
     26          6           0       -2.636139    1.257061    0.329986
     27          8           0       -3.854057    0.822322   -0.291869
     28          6           0       -4.388105   -0.458694    0.073833
     29          8           0       -5.500662   -0.680801   -0.804599
     30          1           0       -6.251441   -0.996709   -0.296532
     31          1           0       -4.727257   -0.433499    1.088348
     32          1           0       -3.280657   -1.732777   -1.154917
     33          1           0       -1.954602   -1.203866    1.430883
     34          1           0       -1.335927    0.314923   -1.068546
     35          1           0       -2.767354    1.291155    1.391362
     36          1           0       -3.290493    3.229488    0.006159
     37          1           0       -2.310223    2.589753   -1.264135
     38          1           0        5.621286   -0.826440    0.265544
     39          1           0        2.142922   -3.163476   -0.039338
     40          1           0        2.979002   -2.490493    1.316733
     41          1           0        2.625860   -1.218484   -1.363748
     42          1           0        3.889018   -0.123263    1.093134
     43          1           0        3.203916    1.364489   -1.376770
     44          1           0        1.981125    1.646100    1.348068
     45          1           0        0.697969    0.478488   -1.117613
 ---------------------------------------------------------------------

 SCF Done:  E(RB3LYP) =  -1297.99282347     A.U. after   13 cycles

 The electronic state is 1-A.
 Alpha  occ. eigenvalues --  -19.18884 -19.18495 -19.18235 -19.18221 -19.18032
 Alpha  occ. eigenvalues --  -19.16883 -19.16485 -19.16309 -19.15160 -19.14222
 Alpha  occ. eigenvalues --  -19.14079 -10.31101 -10.30743 -10.26538 -10.26085
 Alpha  occ. eigenvalues --  -10.25407 -10.25364 -10.24843 -10.24602 -10.24562
 Alpha  occ. eigenvalues --  -10.24378 -10.24352 -10.24000  -1.10255  -1.09044
 Alpha  occ. eigenvalues --   -1.05442  -1.04920  -1.04220  -1.03676  -1.02980
 Alpha  occ. eigenvalues --   -1.02723  -1.02395  -1.01237  -1.00460  -0.82388
 Alpha  occ. eigenvalues --   -0.80008  -0.79473  -0.78404  -0.72129  -0.70058
 Alpha  occ. eigenvalues --   -0.67662  -0.65445  -0.63526  -0.62582  -0.61342
 Alpha  occ. eigenvalues --   -0.60005  -0.56613  -0.56110  -0.55283  -0.55198
 Alpha  occ. eigenvalues --   -0.54286  -0.53426  -0.53077  -0.52211  -0.51379
 Alpha  occ. eigenvalues --   -0.50816  -0.50079  -0.49478  -0.48753  -0.46551
 Alpha  occ. eigenvalues --   -0.46124  -0.45352  -0.44020  -0.43704  -0.43079
 Alpha  occ. eigenvalues --   -0.42528  -0.42168  -0.41109  -0.40359  -0.39280
 Alpha  occ. eigenvalues --   -0.39008  -0.38182  -0.37416  -0.36581  -0.36248
 Alpha  occ. eigenvalues --   -0.35250  -0.35210  -0.34838  -0.34496  -0.33917
 Alpha  occ. eigenvalues --   -0.32989  -0.31396  -0.30960  -0.30539  -0.29993
 Alpha  occ. eigenvalues --   -0.29365  -0.28836  -0.28525  -0.28033  -0.26827
 Alpha  occ. eigenvalues --   -0.26447
 Alpha virt. eigenvalues --   -0.02528  -0.02124  -0.01696  -0.00082   0.00299
 Alpha virt. eigenvalues --    0.00918   0.02001   0.02288   0.02989   0.03408
 Alpha virt. eigenvalues --    0.03726   0.04467   0.04705   0.05214   0.05529

 Mulliken atomic charges:
              1
     1  O   -0.536565
     2  C   -0.190239
     3  C    0.394750
     4  O   -0.543083
     5  H    0.341436
     6  C   -0.107650
     7  O   -0.551946
     8  H    0.383265
     9  C   -0.276875
    10  O   -0.535193
    11  H    0.337472
    12  C    0.243759
    13  O   -0.246002
    14  C    0.065632
    15  O   -0.195125
    16  C    0.078673
    17  C    0.394601
    18  O   -0.570757
    19  H    0.381385
    20  C    0.021362
    21  O   -0.560096
    22  H    0.325137
    23  C   -0.257358
    24  O   -0.563280
    25  H    0.363661
    26  C   -0.058409
    27  O   -0.238715
    28  C    0.107683
    29  O   -0.519355
    30  H    0.331555
    31  H    0.126837
    32  H    0.136915
    33  H    0.126862
    34  H    0.120099
    35  H    0.121853
    36  H    0.144125
    37  H    0.155487
    38  H    0.347568
    39  H    0.147640
    40  H    0.144918
    41  H    0.108026
    42  H    0.114343
    43  H    0.121626
    44  H    0.135783
    45  H    0.128194
 Sum of Mulliken atomic charges =   0.00000

 Dipole moment (field-independent basis, Debye):
    X=             -3.4210    Y=             -0.1954    Z=              1.6107  Tot=              3.7862
 Quadrupole moment (field-independent basis, Debye-Ang):
   XX=           -120.5825   YY=           -135.8681   ZZ=           -140.3098
   XY=            -14.6484   XZ=             -3.1498   YZ=             -1.6502

  Exact polarizability: 233.334   2.409 198.245  -0.060  -0.348 143.954
 Approx polarizability: 274.319   2.377 257.233   0.124   1.085 238.823

 ******    7 imaginary frequencies (negative Signs) ******

                     1                      2                      3
                     A                      A                      A
 Frequencies --  -276.0933              -265.1019              -256.7808
 Red. masses --     1.2216                 1.6096                 1.7730
 Frc consts  --     0.0549                 0.0666                 0.0689
 IR Inten    --   106.9588                30.8062                 2.6056
 Raman Activ --     0.9252                 0.1590                 0.0639

                     4                      5                      6
                     A                      A                      A
 Frequencies --  -218.1725               -77.8353               -57.0592
 Red. masses --     1.2250                 6.3433                 6.4114
 Frc consts  --     0.0344                 0.0226                 0.0123
 IR Inten    --    82.2885                 1.3523                 0.1076
 Raman Activ --     0.6817                 0.0221                 0.0217

                     7                      8                      9
                     A                      A                      A
 Frequencies --   -34.3351                34.8389                47.5005
 Red. masses --     6.6713                 7.0888                 6.8395
 Frc consts  --     0.0046                 0.0051                 0.0091
 IR Inten    --     0.1678                 0.8814                 1.4408
 Raman Activ --     0.0228                 0.0546                 0.1214

                    10                     11                     12
                     A                      A                      A
 Frequencies --    70.8938                78.5370               100.9586
 Red. masses --     6.9135                 5.8963                 5.7731
 Frc consts  --     0.0205                 0.0214                 0.0347
 IR Inten    --     1.0684                 3.1821                 0.8169
 Raman Activ --     0.1836                 0.0632                 0.1240

                    13                     14                     15
                     A                      A                      A
 Frequencies --   137.1793               169.5855               179.4262
 Red. masses --     6.1308                 5.7080                 6.4464
 Frc consts  --     0.0680                 0.0967                 0.1223
 IR Inten    --     3.8575                 3.5472                 0.6605
 Raman Activ --     0.3478                 0.1714                 0.4103

                    16                     17                     18
                     A                      A                      A
 Frequencies --   185.3124               225.6301               243.5009
 Red. masses --     7.7688                 5.9736                 4.7554
 Frc consts  --     0.1572                 0.1792                 0.1661
 IR Inten    --     0.1919                 1.1327                19.1135
 Raman Activ --     1.9659                 1.1225                 0.3258

                    19                     20                     21
                     A                      A                      A
 Frequencies --   261.8404               280.4727               296.2077
 Red. masses --     4.8618                 5.0400                 5.4193
 Frc consts  --     0.1964                 0.2336                 0.2801
 IR Inten    --     2.2535                 1.2827                 4.2231
 Raman Activ --     0.2088                 0.2601                 0.0791

                    22                     23                     24
                     A                      A                      A
 Frequencies --   306.6657               314.6128               329.2480
 Red. masses --     6.7651                 4.5251                 6.4455
 Frc consts  --     0.3748                 0.2639                 0.4117
 IR Inten    --     5.7571                 6.6843                 1.2124
 Raman Activ --     1.6185                 1.1722                 2.0899

                    25                     26                     27
                     A                      A                      A
 Frequencies --   335.3773               354.5439               369.4538
 Red. masses --     6.5894                 4.7884                 7.8587
 Frc consts  --     0.4367                 0.3546                 0.6320
 IR Inten    --     9.0514                 7.0580                 1.5982
 Raman Activ --     6.1387                 0.0611                 2.5312

                    28                     29                     30
                     A                      A                      A
 Frequencies --   402.7105               410.8113               433.7798
 Red. masses --     3.5309                 6.6210                 5.4657
 Frc consts  --     0.3374                 0.6584                 0.6059
 IR Inten    --    23.5997                 1.8945                 3.8817
 Raman Activ --     1.7900                 4.9299                 1.8584

                    31                     32                     33
                     A                      A                      A
 Frequencies --   444.4553               472.7568               488.1608
 Red. masses --     5.0039                 4.4220                 3.8268
 Frc consts  --     0.5824                 0.5823                 0.5373
 IR Inten    --     4.1303                 5.0644                10.9719
 Raman Activ --     2.3224                 1.6873                 2.4800

                    34                     35                     36
                     A                      A                      A
 Frequencies --   514.3342               531.3802               566.4659
 Red. masses --     4.0198                 3.2124                 3.7742
 Frc consts  --     0.6265                 0.5344                 0.7135
 IR Inten    --     9.3077                 8.8426                16.6779
 Raman Activ --     3.0486                 2.8489                 2.0630

                    37                     38                     39
                     A                      A                      A
 Frequencies --   584.9938               590.3989               607.7368
 Red. masses --     3.0311                 5.7036                 5.5511
 Frc consts  --     0.6112                 1.1714                 1.2080
 IR Inten    --    23.2883                 9.0238                23.5276
 Raman Activ --     0.2586                 0.7345                 1.0439

                    40                     41                     42
                     A                      A                      A
 Frequencies --   625.7029               647.7739               669.1954
 Red. masses --     3.7996                 1.0701                 1.1491
 Frc consts  --     0.8765                 0.2646                 0.3032
 IR Inten    --    14.8761                87.4440                92.5841
 Raman Activ --     1.1385                 2.2633                 1.2139

                    43                     44                     45
                     A                      A                      A
 Frequencies --   679.3000               707.5071               752.1853
 Red. masses --     4.1883                 1.0802                 1.0681
 Frc consts  --     1.1387                 0.3186                 0.3561
 IR Inten    --    19.8974               102.1910                85.3908
 Raman Activ --     0.7297                 1.5776                 0.9914

                    46                     47                     48
                     A                      A                      A
 Frequencies --   767.6989               847.1051               857.5832
 Red. masses --     1.0835                 1.7685                 1.6842
 Frc consts  --     0.3762                 0.7477                 0.7298
 IR Inten    --    93.1380                 3.8582                 1.8280
 Raman Activ --     1.6060                 1.2053                 0.7382

                    49                     50                     51
                     A                      A                      A
 Frequencies --   872.8739               914.2424               941.7541
 Red. masses --     1.0888                 6.0307                 4.9854
 Frc consts  --     0.4888                 2.9699                 2.6051
 IR Inten    --    57.5083               151.1789                48.2779
 Raman Activ --     0.4525                 2.8261                 0.4105

                    52                     53                     54
                     A                      A                      A
 Frequencies --   978.6896               985.1668               992.0455
 Red. masses --     6.8589                 6.5729                 4.4487
 Frc consts  --     3.8707                 3.7586                 2.5796
 IR Inten    --     7.8088               111.1944                63.8011
 Raman Activ --     4.3764                 1.8973                 0.6457

                    55                     56                     57
                     A                      A                      A
 Frequencies --   998.8942              1018.4662              1026.8025
 Red. masses --     6.3310                 6.8675                 6.2225
 Frc consts  --     3.7219                 4.1970                 3.8653
 IR Inten    --   455.2006                42.4015               166.4261
 Raman Activ --     2.1042                 1.6921                 4.2604

                    58                     59                     60
                     A                      A                      A
 Frequencies --  1036.9776              1051.5769              1063.0446
 Red. masses --     5.8009                 6.8593                 3.9286
 Frc consts  --     3.6752                 4.4690                 2.6157
 IR Inten    --   297.9043               129.8432                27.1188
 Raman Activ --     1.5827                 3.3972                 7.6670

                    61                     62                     63
                     A                      A                      A
 Frequencies --  1071.8799              1074.4992              1076.8376
 Red. masses --     6.4833                 5.1053                 4.4815
 Frc consts  --     4.3888                 3.4729                 3.0617
 IR Inten    --    94.6433                 5.6721               112.2821
 Raman Activ --     1.3962                12.8767                12.2579

                    64                     65                     66
                     A                      A                      A
 Frequencies --  1093.4081              1100.5240              1107.7227
 Red. masses --     3.1275                 3.2299                 2.8425
 Frc consts  --     2.2030                 2.3048                 2.0550
 IR Inten    --    52.5663                26.4555                 3.5205
 Raman Activ --     5.7754                 2.4404                 8.0244

                    67                     68                     69
                     A                      A                      A
 Frequencies --  1116.5618              1130.6521              1132.0434
 Red. masses --     2.9153                 2.2706                 2.3677
 Frc consts  --     2.1414                 1.7102                 1.7877
 IR Inten    --    14.8357                30.1132                68.4604
 Raman Activ --     3.7086                 1.8695                 8.6128

                    70                     71                     72
                     A                      A                      A
 Frequencies --  1141.0077              1149.9974              1159.7470
 Red. masses --     3.2063                 1.9267                 1.6731
 Frc consts  --     2.4594                 1.5013                 1.3258
 IR Inten    --    27.4176                 9.5399                 2.6932
 Raman Activ --     5.4534                 3.5225                 2.3350

                    73                     74                     75
                     A                      A                      A
 Frequencies --  1171.1904              1174.2767              1181.4033
 Red. masses --     1.7457                 1.6653                 1.5817
 Frc consts  --     1.4109                 1.3530                 1.3007
 IR Inten    --     9.3280                 3.8083                 8.5533
 Raman Activ --     4.3543                 0.9046                 1.3729

                    76                     77                     78
                     A                      A                      A
 Frequencies --  1197.5193              1212.1570              1231.8953
 Red. masses --     1.3090                 1.2725                 1.2256
 Frc consts  --     1.1060                 1.1016                 1.0958
 IR Inten    --    15.1532                 7.3463                 4.1218
 Raman Activ --     3.3105                 0.7186                 2.4725

                    79                     80                     81
                     A                      A                      A
 Frequencies --  1234.7676              1238.2266              1262.6829
 Red. masses --     1.2394                 1.2433                 1.3326
 Frc consts  --     1.1133                 1.1231                 1.2518
 IR Inten    --     6.5584                 1.3480                22.4098
 Raman Activ --     1.8104                 1.0035                 1.6981

                    82                     83                     84
                     A                      A                      A
 Frequencies --  1269.0955              1273.5600              1280.6937
 Red. masses --     1.2692                 1.3250                 1.3072
 Frc consts  --     1.2044                 1.2662                 1.2632
 IR Inten    --     4.5829                10.5407                30.8018
 Raman Activ --     3.9372                 1.3886                 0.5186

                    85                     86                     87
                     A                      A                      A
 Frequencies --  1291.6300              1292.8734              1297.3045
 Red. masses --     1.2405                 1.2613                 1.2955
 Frc consts  --     1.2193                 1.2422                 1.2846
 IR Inten    --     7.2341                24.8164                50.3003
 Raman Activ --     1.3914                 7.4109                 3.5578

                    88                     89                     90
                     A                      A                      A
 Frequencies --  1308.7333              1312.4532              1323.6576
 Red. masses --     1.3065                 1.2402                 1.3477
 Frc consts  --     1.3185                 1.2587                 1.3913
 IR Inten    --     9.6167                10.4147                18.0914
 Raman Activ --     9.0963                 7.9129                 3.5568

                    91                     92                     93
                     A                      A                      A
 Frequencies --  1326.6044              1341.2140              1348.1821
 Red. masses --     1.3041                 1.2087                 1.2054
 Frc consts  --     1.3522                 1.2811                 1.2909
 IR Inten    --    27.4823                41.0971                16.3763
 Raman Activ --     3.8072                 6.9277                 0.7108

                    94                     95                     96
                     A                      A                      A
 Frequencies --  1351.0638              1362.8592              1368.8799
 Red. masses --     1.1640                 1.4803                 1.4212
 Frc consts  --     1.2519                 1.6200                 1.5690
 IR Inten    --    32.8203                15.2299                 3.8684
 Raman Activ --     2.0600                 7.8149                 5.7776

                    97                     98                     99
                     A                      A                      A
 Frequencies --  1382.4391              1398.0497              1414.2165
 Red. masses --     1.6391                 1.4460                 1.2779
 Frc consts  --     1.8456                 1.6652                 1.5058
 IR Inten    --    12.1645                 1.9150                 3.9446
 Raman Activ --     4.3342                 6.7539                 5.5019

                   100                    101                    102
                     A                      A                      A
 Frequencies --  1414.8736              1442.4792              1467.6576
 Red. masses --     1.5678                 1.4043                 1.1749
 Frc consts  --     1.8492                 1.7215                 1.4911
 IR Inten    --    27.0214                20.4566                16.3358
 Raman Activ --     0.5152                 0.8339                 1.7591

                   103                    104                    105
                     A                      A                      A
 Frequencies --  1469.1074              1473.0422              1481.1905
 Red. masses --     1.1406                 1.1159                 1.3238
 Frc consts  --     1.4503                 1.4266                 1.7112
 IR Inten    --     6.7600                12.3233                24.1834
 Raman Activ --     3.9029                 3.9268                 0.5555

                   106                    107                    108
                     A                      A                      A
 Frequencies --  1485.1709              1539.7716              3258.1101
 Red. masses --     1.3842                 1.2300                 1.0577
 Frc consts  --     1.7988                 1.7181                 6.6150
 IR Inten    --    71.2191                53.4672                25.1485
 Raman Activ --     1.4626                 1.5977                61.0165

                   109                    110                    111
                     A                      A                      A
 Frequencies --  3261.3010              3264.2267              3272.7513
 Red. masses --     1.0581                 1.0814                 1.0820
 Frc consts  --     6.6310                 6.7888                 6.8282
 IR Inten    --    40.8766                 1.1722                20.1582
 Raman Activ --    82.2087               124.2613               143.0252

                   112                    113                    114
                     A                      A                      A
 Frequencies --  3274.7503              3275.4244              3277.6067
 Red. masses --     1.0833                 1.0835                 1.0833
 Frc consts  --     6.8444                 6.8489                 6.8569
 IR Inten    --     8.0568                 6.5303                11.1542
 Raman Activ --    10.2493                 5.0680                80.8792

                   115                    116                    117
                     A                      A                      A
 Frequencies --  3283.7065              3285.5350              3289.1419
 Red. masses --     1.0851                 1.0855                 1.0851
 Frc consts  --     6.8934                 6.9042                 6.9167
 IR Inten    --     6.2965                35.7832                12.0151
 Raman Activ --   113.7337                82.3386                28.9727

                   118                    119                    120
                     A                      A                      A
 Frequencies --  3297.8930              3301.0493              3312.9116
 Red. masses --     1.0863                 1.0841                 1.0797
 Frc consts  --     6.9611                 6.9604                 6.9816
 IR Inten    --    61.0155                70.7621               104.5528
 Raman Activ --     5.6664                46.4539               159.5898

                   121                    122                    123
                     A                      A                      A
 Frequencies --  3315.2602              3318.3110              3322.2274
 Red. masses --     1.0954                 1.1046                 1.0695
 Frc consts  --     7.0937                 7.1665                 6.9547
 IR Inten    --   116.6245                68.2259               687.6920
 Raman Activ --   136.0290                24.0341                82.0495

                   124                    125                    126
                     A                      A                      A
 Frequencies --  3358.7663              3361.6844              3373.0125
 Red. masses --     1.0664                 1.0654                 1.0681
 Frc consts  --     7.0884                 7.0936                 7.1595
 IR Inten    --    34.6215                34.6788                39.9705
 Raman Activ --   140.0494                97.3219               142.1134

                   127                    128                    129
                     A                      A                      A
 Frequencies --  3378.9534              3889.7401              3890.8408
 Red. masses --     1.0687                 1.0677                 1.0674
 Frc consts  --     7.1888                 9.5181                 9.5209
 IR Inten    --    72.4041                93.9211                65.5695
 Raman Activ --   148.4432                69.3594               115.4666

 - Thermochemistry -
 -------------------
 Temperature   298.150 Kelvin.  Pressure   1.00000 Atm.
 Atom     1 has atomic number  8 and mass  15.99491

 Molecular mass:   342.11621 amu.
 Principal axes and moments of inertia in atomic units:
                           1         2         3
     Eigenvalues --  4500.30383********************
           X            0.99997  -0.00725  -0.00039
           Y            0.00725   0.99997  -0.00306
           Z            0.00042   0.00306   1.00000
 This molecule is an asymmetric top.
 Rotational symmetry number  1.
 Warning -- assumption of classical behavior for rotation
           may cause significant error
 Rotational temperatures (Kelvin)      0.01925     0.00690     0.00521
 Rotational constants (GHZ):           0.40103     0.14382     0.10852
    7 imaginary frequencies ignored.
 Zero-point vibrational energy     972823.3 (Joules/Mol)
                                  232.51036 (Kcal/Mol)
 Warning -- explicit consideration of  32 degrees of freedom as
           vibrations may cause significant error
 Vibrational temperatures:     50.13    68.34   102.00   113.00   145.26
          (Kelvin)            197.37   244.00   258.15   266.62   324.63
                              350.34   376.73   403.54   426.18   441.22
                              452.66   473.71   482.53   510.11   531.56
                              579.41   591.07   624.11   639.47   680.19
                              702.35   740.01   764.54   815.02   841.67
                              849.45   874.40   900.25   932.00   962.82
                              977.36  1017.94  1082.23  1104.55  1218.79
                             1233.87  1255.87  1315.39  1354.97  1408.11
                             1417.43  1427.33  1437.18  1465.34  1477.34
                             1491.98  1512.98  1529.48  1542.19  1545.96
                             1549.33  1573.17  1583.41  1593.76  1606.48
                             1626.75  1628.76  1641.65  1654.59  1668.62
                             1685.08  1689.52  1699.77  1722.96  1744.02
                             1772.42  1776.55  1781.53  1816.72  1825.94
                             1832.37  1842.63  1858.37  1860.15  1866.53
                             1882.97  1888.33  1904.45  1908.69  1929.71
                             1939.73  1943.88  1960.85  1969.51  1989.02
                             2011.48  2034.74  2035.68  2075.40  2111.63
                             2113.72  2119.38  2131.10  2136.83  2215.39
                             4687.69  4692.28  4696.49  4708.75  4711.63
                             4712.60  4715.74  4724.52  4727.15  4732.34
                             4744.93  4749.47  4766.53  4769.91  4774.30
                             4779.94  4832.51  4836.71  4853.01  4861.55
                             5596.46  5598.05

 Zero-point correction=                           0.370529 (Hartree/Particle)
 Thermal correction to Energy=                    0.389244
 Thermal correction to Enthalpy=                  0.390188
 Thermal correction to Gibbs Free Energy=         0.323854
 Sum of electronic and zero-point Energies=          -1297.622295
 Sum of electronic and thermal Energies=             -1297.603579
 Sum of electronic and thermal Enthalpies=           -1297.602635
 Sum of electronic and thermal Free Energies=        -1297.668970

                     E (Thermal)             CV                S
                      KCal/Mol        Cal/Mol-Kelvin    Cal/Mol-Kelvin
 Total                  244.254             76.454            139.613
 Electronic               0.000              0.000              0.000
 Translational            0.889              2.981             43.384
 Rotational               0.889              2.981             35.195
 Vibrational            242.477             70.492             61.034
 Vibration     1          0.594              1.983              5.533
 Vibration     2          0.595              1.979              4.919
 Vibration     3          0.598              1.968              4.128
 Vibration     4          0.600              1.964              3.927
 Vibration     5          0.604              1.948              3.436
 Vibration     6          0.614              1.916              2.843
 Vibration     7          0.625              1.880              2.440
 Vibration     8          0.629              1.868              2.334
 Vibration     9          0.631              1.860              2.274
 Vibration    10          0.650              1.802              1.913
 Vibration    11          0.659              1.774              1.777
 Vibration    12          0.669              1.743              1.649
 Vibration    13          0.680              1.710              1.531
 Vibration    14          0.690              1.681              1.438
 Vibration    15          0.697              1.661              1.380
 Vibration    16          0.702              1.646              1.338
 Vibration    17          0.712              1.617              1.264
 Vibration    18          0.716              1.605              1.234
 Vibration    19          0.730              1.566              1.146
 Vibration    20          0.742              1.535              1.082
 Vibration    21          0.768              1.464              0.953
 Vibration    22          0.775              1.447              0.924
 Vibration    23          0.795              1.397              0.846
 Vibration    24          0.804              1.373              0.813
 Vibration    25          0.830              1.310              0.730
 Vibration    26          0.844              1.276              0.688
 Vibration    27          0.869              1.218              0.623
 Vibration    28          0.886              1.181              0.584
 Vibration    29          0.922              1.104              0.511
 Vibration    30          0.942              1.064              0.476
 Vibration    31          0.948              1.052              0.466
 Vibration    32          0.967              1.015              0.437

 Normal termination of Gaussian 09 at Thu Mar 31 03:09:53 2016.
