 Gaussian 09, Revision B.01,
 Gaussian 09:  EM64L-G09RevB.01 12-Aug-2010

 -------------------------------------------------
 # freq=raman b3lyp/6-31+g(2d,p) geom=connectivity
 -------------------------------------------------

 -----------------
 320 5029/5029.com
 -----------------
 Symbolic Z-matrix:
 Charge =  0 Multiplicity = 1

                         Standard orientation:
 ---------------------------------------------------------------------
 Center     Atomic      Atomic             Coordinates (Angstroms)
 Number     Number       Type             X           Y           Z
 ---------------------------------------------------------------------
      1          8           0        4.992049   -0.414578   -0.416460
      2          6           0        3.730656   -0.134371    0.207775
      3          6           0        3.294634    1.251625   -0.239734
      4          8           0        4.185453    2.281354    0.213265
      5          1           0        5.111316    1.911252    0.133720
      6          6           0        1.898025    1.504793    0.305636
      7          8           0        1.377497    2.741991   -0.200329
      8          1           0        0.409909    2.908243   -0.013364
      9          6           0        2.976791   -2.584515    0.192613
     10          8           0        4.138208   -3.150066   -0.432768
     11          1           0        4.077235   -4.144242   -0.523125
     12          6           0        2.705806   -1.157461   -0.253510
     13          8           0        1.412892   -0.851245    0.290042
     14          6           0        0.914988    0.428174   -0.125311
     15          8           0       -0.276647    0.569264    0.662040
     16          6           0       -1.490390    0.166879    0.011305
     17          6           0       -1.986119   -1.187120    0.490661
     18          8           0       -1.068306   -2.180928    0.011104
     19          1           0       -0.180045   -1.744793    0.161830
     20          6           0       -3.352245   -1.495523   -0.101553
     21          8           0       -3.963229   -2.701483    0.380026
     22          1           0       -4.637509   -3.090613   -0.246781
     23          6           0       -2.320735    2.592884   -0.367446
     24          8           0       -1.174148    3.305041    0.118496
     25          1           0       -1.455745    4.247627    0.302678
     26          6           0       -2.576620    1.211260    0.212072
     27          8           0       -3.889142    0.940914   -0.300843
     28          6           0       -4.326765   -0.354116    0.135955
     29          8           0       -5.473906   -0.578115   -0.696569
     30          1           0       -6.233659   -0.782193   -0.146363
     31          1           0        5.638765   -0.640433    0.256108
     32          1           0        3.117452   -2.593410    1.253290
     33          1           0        2.126929   -3.188372   -0.048203
     34          1           0        2.648465   -1.132856   -1.321689
     35          1           0        3.830321   -0.164730    1.272691
     36          1           0        3.257394    1.273395   -1.308864
     37          1           0        1.935437    1.545140    1.374221
     38          1           0        0.710611    0.460331   -1.175118
     39          1           0       -3.185125    3.193793   -0.176037
     40          1           0       -2.217426    2.489674   -1.427435
     41          1           0       -2.679765    1.335000    1.269876
     42          1           0       -1.292906    0.093156   -1.037726
     43          1           0       -2.031184   -1.208958    1.559489
     44          1           0       -3.226899   -1.598701   -1.159165
     45          1           0       -4.617497   -0.320560    1.165153
 ---------------------------------------------------------------------

 SCF Done:  E(RB3LYP) =  -1298.00747107     A.U. after   13 cycles

 The electronic state is 1-A.
 Alpha  occ. eigenvalues --  -19.18752 -19.18422 -19.18272 -19.17988 -19.17051
 Alpha  occ. eigenvalues --  -19.16661 -19.16257 -19.15971 -19.15049 -19.14000
 Alpha  occ. eigenvalues --  -19.12013 -10.30373 -10.29895 -10.25831 -10.25564
 Alpha  occ. eigenvalues --  -10.25328 -10.25109 -10.25031 -10.24839 -10.24432
 Alpha  occ. eigenvalues --  -10.24169 -10.23853 -10.23683  -1.10274  -1.08911
 Alpha  occ. eigenvalues --   -1.05591  -1.05191  -1.04033  -1.03351  -1.02400
 Alpha  occ. eigenvalues --   -1.02180  -1.01602  -1.00922  -0.99064  -0.82070
 Alpha  occ. eigenvalues --   -0.80150  -0.79170  -0.78138  -0.71828  -0.69543
 Alpha  occ. eigenvalues --   -0.67112  -0.65084  -0.63352  -0.62648  -0.61303
 Alpha  occ. eigenvalues --   -0.60096  -0.56364  -0.56083  -0.55073  -0.54770
 Alpha  occ. eigenvalues --   -0.54092  -0.53091  -0.52732  -0.52170  -0.50961
 Alpha  occ. eigenvalues --   -0.50439  -0.49802  -0.49403  -0.48636  -0.46306
 Alpha  occ. eigenvalues --   -0.45944  -0.44913  -0.44058  -0.43580  -0.43307
 Alpha  occ. eigenvalues --   -0.42361  -0.41722  -0.40783  -0.39951  -0.39084
 Alpha  occ. eigenvalues --   -0.38883  -0.37861  -0.37576  -0.36318  -0.35729
 Alpha  occ. eigenvalues --   -0.35553  -0.34824  -0.34693  -0.34178  -0.32743
 Alpha  occ. eigenvalues --   -0.32598  -0.31287  -0.30611  -0.30127  -0.29885
 Alpha  occ. eigenvalues --   -0.29422  -0.28813  -0.28628  -0.27250  -0.26535
 Alpha  occ. eigenvalues --   -0.26040
 Alpha virt. eigenvalues --   -0.01894  -0.01702  -0.01265  -0.00230   0.00228
 Alpha virt. eigenvalues --    0.01001   0.01872   0.02424   0.02713   0.03559
 Alpha virt. eigenvalues --    0.03961   0.04365   0.04872   0.05379   0.05529

 Mulliken atomic charges:
              1
     1  O   -0.537322
     2  C   -0.107400
     3  C    0.180417
     4  O   -0.553208
     5  H    0.337118
     6  C    0.044517
     7  O   -0.616440
     8  H    0.441392
     9  C   -0.190460
    10  O   -0.538529
    11  H    0.344280
    12  C    0.170341
    13  O   -0.269983
    14  C    0.124494
    15  O   -0.186861
    16  C    0.325155
    17  C    0.175424
    18  O   -0.560484
    19  H    0.391624
    20  C   -0.032115
    21  O   -0.556263
    22  H    0.344222
    23  C   -0.279551
    24  O   -0.561930
    25  H    0.358561
    26  C   -0.193347
    27  O   -0.237736
    28  C    0.207980
    29  O   -0.542411
    30  H    0.333248
    31  H    0.339782
    32  H    0.141190
    33  H    0.148788
    34  H    0.116860
    35  H    0.124666
    36  H    0.124807
    37  H    0.130268
    38  H    0.133806
    39  H    0.145707
    40  H    0.159235
    41  H    0.116941
    42  H    0.112380
    43  H    0.128044
    44  H    0.134277
    45  H    0.128516
 Sum of Mulliken atomic charges =   0.00000

 Dipole moment (field-independent basis, Debye):
    X=             -2.2102    Y=             -0.9417    Z=              1.6010  Tot=              2.8870
 Quadrupole moment (field-independent basis, Debye-Ang):
   XX=           -120.1715   YY=           -134.6753   ZZ=           -138.7252
   XY=            -17.1710   XZ=              2.2331   YZ=              3.6354

  Exact polarizability: 233.479   2.071 196.530   0.755   0.448 144.020
 Approx polarizability: 273.381   1.709 256.129   0.814   2.006 239.956

 ******    7 imaginary frequencies (negative Signs) ******

                     1                      2                      3
                     A                      A                      A
 Frequencies --  -253.3351              -251.5582              -228.6088
 Red. masses --     1.1668                 1.3017                 1.7728
 Frc consts  --     0.0441                 0.0485                 0.0546
 IR Inten    --    81.3518               123.5608                 0.9051
 Raman Activ --     1.0913                 0.4564                 0.0529

                     4                      5                      6
                     A                      A                      A
 Frequencies --  -207.3994               -73.5028               -63.6688
 Red. masses --     1.6144                 7.0838                 6.4511
 Frc consts  --     0.0409                 0.0225                 0.0154
 IR Inten    --    23.8632                 0.9382                 1.2797
 Raman Activ --     0.3881                 0.0168                 0.0330

                     7                      8                      9
                     A                      A                      A
 Frequencies --   -43.6351                42.3871                72.6062
 Red. masses --     6.0851                 6.5767                 6.5759
 Frc consts  --     0.0068                 0.0070                 0.0204
 IR Inten    --     1.4561                 0.2880                 1.5015
 Raman Activ --     0.0319                 0.0329                 0.2914

                    10                     11                     12
                     A                      A                      A
 Frequencies --    80.9271                91.6156                96.6881
 Red. masses --     6.0108                 6.7457                 5.6614
 Frc consts  --     0.0232                 0.0334                 0.0312
 IR Inten    --     2.9489                 1.0074                 1.0253
 Raman Activ --     0.0386                 0.0715                 0.0715

                    13                     14                     15
                     A                      A                      A
 Frequencies --   164.5725               182.1752               191.3087
 Red. masses --     6.0509                 5.6744                 7.8820
 Frc consts  --     0.0966                 0.1110                 0.1700
 IR Inten    --     3.5054                 3.0881                 0.7742
 Raman Activ --     0.4885                 0.3218                 1.0515

                    16                     17                     18
                     A                      A                      A
 Frequencies --   211.5474               236.2988               272.1430
 Red. masses --     7.0434                 5.9667                 4.5654
 Frc consts  --     0.1857                 0.1963                 0.1992
 IR Inten    --     0.3163                 1.5137                21.2076
 Raman Activ --     2.2301                 0.3221                 0.2730

                    19                     20                     21
                     A                      A                      A
 Frequencies --   280.6662               293.2526               302.0504
 Red. masses --     4.9056                 5.1608                 4.6108
 Frc consts  --     0.2277                 0.2615                 0.2478
 IR Inten    --     0.6352                 4.2476                 1.0078
 Raman Activ --     0.1694                 0.1426                 0.1555

                    22                     23                     24
                     A                      A                      A
 Frequencies --   307.8769               327.8414               332.0806
 Red. masses --     6.0693                 5.7086                 6.7248
 Frc consts  --     0.3390                 0.3615                 0.4369
 IR Inten    --     7.1626                 1.1542                 1.0068
 Raman Activ --     0.2879                 3.2982                 2.0121

                    25                     26                     27
                     A                      A                      A
 Frequencies --   353.9132               359.5362               383.2349
 Red. masses --     6.8253                 4.7630                 6.5233
 Frc consts  --     0.5037                 0.3628                 0.5645
 IR Inten    --    12.3758                 3.4894                 3.4751
 Raman Activ --     2.4510                 0.1282                 1.1019

                    28                     29                     30
                     A                      A                      A
 Frequencies --   409.6472               430.7003               438.2592
 Red. masses --     3.8637                 6.5538                 4.6849
 Frc consts  --     0.3820                 0.7163                 0.5302
 IR Inten    --    18.3689                 1.2719                 3.5678
 Raman Activ --     3.0262                 9.0133                 0.5065

                    31                     32                     33
                     A                      A                      A
 Frequencies --   442.3736               478.2567               490.9038
 Red. masses --     6.1343                 4.8219                 3.7360
 Frc consts  --     0.7073                 0.6498                 0.5305
 IR Inten    --     3.0758                 2.7177                13.2631
 Raman Activ --     2.6219                 3.7910                 1.2265

                    34                     35                     36
                     A                      A                      A
 Frequencies --   515.9019               533.2461               574.8186
 Red. masses --     4.4167                 2.9032                 3.8837
 Frc consts  --     0.6926                 0.4864                 0.7561
 IR Inten    --     8.1028                 6.0971                 3.2427
 Raman Activ --     1.6832                 3.4730                 1.3892

                    37                     38                     39
                     A                      A                      A
 Frequencies --   587.8212               608.8577               628.4809
 Red. masses --     2.7793                 5.8760                 5.0659
 Frc consts  --     0.5658                 1.2834                 1.1789
 IR Inten    --    48.0188                 1.4537                 8.4402
 Raman Activ --     0.2723                 0.7612                 0.2215

                    40                     41                     42
                     A                      A                      A
 Frequencies --   641.3263               675.7235               682.4325
 Red. masses --     3.8697                 1.4381                 1.0811
 Frc consts  --     0.9377                 0.3869                 0.2966
 IR Inten    --    37.0927                63.8148                52.5936
 Raman Activ --     0.8033                 1.4801                 0.7998

                    43                     44                     45
                     A                      A                      A
 Frequencies --   687.9425               694.8530               750.7889
 Red. masses --     1.1708                 2.0545                 1.0659
 Frc consts  --     0.3265                 0.5845                 0.3540
 IR Inten    --   160.1871                11.8406                86.4348
 Raman Activ --     0.7194                 3.6429                 1.4795

                    46                     47                     48
                     A                      A                      A
 Frequencies --   825.6886               853.0432               857.0622
 Red. masses --     1.1574                 1.3245                 1.3439
 Frc consts  --     0.4649                 0.5679                 0.5816
 IR Inten    --    38.0488                33.2205                29.5479
 Raman Activ --     0.5109                 0.8547                 0.5225

                    49                     50                     51
                     A                      A                      A
 Frequencies --   869.5037               923.4728               969.8695
 Red. masses --     1.4584                 6.0994                 4.8344
 Frc consts  --     0.6496                 3.0647                 2.6793
 IR Inten    --    11.9264                86.2866                73.1372
 Raman Activ --     0.5820                 2.8541                 0.2950

                    52                     53                     54
                     A                      A                      A
 Frequencies --   977.0969               984.5724               987.1750
 Red. masses --     6.4476                 5.0730                 6.5304
 Frc consts  --     3.6268                 2.8974                 3.7495
 IR Inten    --    29.5594                 8.8729               356.7267
 Raman Activ --     1.7905                 1.8823                 1.0780

                    55                     56                     57
                     A                      A                      A
 Frequencies --   999.7023              1011.3321              1025.2687
 Red. masses --     6.7173                 6.2281                 6.2909
 Frc consts  --     3.9554                 3.7531                 3.8962
 IR Inten    --   234.6807                47.2632               127.4423
 Raman Activ --     2.8152                 2.3062                 1.9619

                    58                     59                     60
                     A                      A                      A
 Frequencies --  1039.1693              1052.5258              1064.2753
 Red. masses --     5.9923                 4.9441                 5.1044
 Frc consts  --     3.8126                 3.2270                 3.4064
 IR Inten    --   338.9541                39.8642                37.3536
 Raman Activ --     3.1451                14.2010                 2.6542

                    61                     62                     63
                     A                      A                      A
 Frequencies --  1066.2447              1071.5781              1076.5819
 Red. masses --     3.8836                 4.1788                 5.5813
 Frc consts  --     2.6013                 2.8271                 3.8114
 IR Inten    --   135.0398                30.7857                44.0061
 Raman Activ --    12.5106                 4.3455                16.4849

                    64                     65                     66
                     A                      A                      A
 Frequencies --  1090.6463              1099.4451              1101.1217
 Red. masses --     2.3480                 2.5251                 2.6827
 Frc consts  --     1.6456                 1.7984                 1.9164
 IR Inten    --    31.8906                69.0703                 8.3892
 Raman Activ --    10.2527                 2.6161                 2.8761

                    67                     68                     69
                     A                      A                      A
 Frequencies --  1117.2355              1123.4299              1127.2723
 Red. masses --     3.3010                 2.0092                 2.1903
 Frc consts  --     2.4277                 1.4941                 1.6399
 IR Inten    --    10.8621                20.7798                75.1818
 Raman Activ --     1.6156                 3.9527                12.5731

                    70                     71                     72
                     A                      A                      A
 Frequencies --  1130.6499              1144.1820              1151.9685
 Red. masses --     2.7938                 1.9904                 2.2453
 Frc consts  --     2.1043                 1.5353                 1.7555
 IR Inten    --     6.8283                 6.6617                 2.9531
 Raman Activ --     2.7224                 2.9322                 5.6460

                    73                     74                     75
                     A                      A                      A
 Frequencies --  1159.8988              1168.4962              1187.3651
 Red. masses --     1.6151                 1.6314                 1.2360
 Frc consts  --     1.2803                 1.3124                 1.0267
 IR Inten    --     9.6968                 2.9365                13.1037
 Raman Activ --     2.2980                 2.5581                 1.0542

                    76                     77                     78
                     A                      A                      A
 Frequencies --  1188.8501              1198.4683              1214.6501
 Red. masses --     1.6838                 1.4004                 1.3121
 Frc consts  --     1.4021                 1.1851                 1.1406
 IR Inten    --    14.0643                12.3633                 2.6149
 Raman Activ --     3.2315                 2.2201                 0.4060

                    79                     80                     81
                     A                      A                      A
 Frequencies --  1227.7970              1232.7526              1251.2121
 Red. masses --     1.2520                 1.1871                 1.2567
 Frc consts  --     1.1120                 1.0629                 1.1592
 IR Inten    --     5.9343                12.3669                 9.1732
 Raman Activ --     1.1540                 1.0839                 0.6589

                    82                     83                     84
                     A                      A                      A
 Frequencies --  1254.5147              1269.3860              1270.6374
 Red. masses --     1.1914                 1.3218                 1.4022
 Frc consts  --     1.1047                 1.2549                 1.3338
 IR Inten    --     5.8274                 1.5224                15.6076
 Raman Activ --     1.1316                 3.5941                 1.8685

                    85                     86                     87
                     A                      A                      A
 Frequencies --  1287.6699              1291.2951              1295.9428
 Red. masses --     1.2333                 1.2622                 1.2998
 Frc consts  --     1.2049                 1.2400                 1.2862
 IR Inten    --    30.2199                16.5728                38.9107
 Raman Activ --     3.2420                 7.5754                 0.9833

                    88                     89                     90
                     A                      A                      A
 Frequencies --  1306.6316              1310.3888              1322.6805
 Red. masses --     1.3637                 1.2915                 1.3164
 Frc consts  --     1.3717                 1.3066                 1.3569
 IR Inten    --     9.9608                13.7880                24.2871
 Raman Activ --     3.0630                14.1339                 1.1810

                    91                     92                     93
                     A                      A                      A
 Frequencies --  1323.7274              1329.0259              1332.1230
 Red. masses --     1.3581                 1.2904                 1.2621
 Frc consts  --     1.4021                 1.3429                 1.3196
 IR Inten    --    61.8129                11.5424                24.0897
 Raman Activ --     3.7055                 1.1759                 2.1444

                    94                     95                     96
                     A                      A                      A
 Frequencies --  1360.9938              1364.9412              1368.8474
 Red. masses --     1.4066                 1.4031                 1.3800
 Frc consts  --     1.5350                 1.5402                 1.5235
 IR Inten    --     7.8504                16.8263                36.7555
 Raman Activ --     3.2609                 9.4290                 3.5942

                    97                     98                     99
                     A                      A                      A
 Frequencies --  1373.7436              1385.2403              1402.1806
 Red. masses --     1.5284                 1.5388                 1.3830
 Frc consts  --     1.6994                 1.7398                 1.6021
 IR Inten    --    13.0829                 5.3166                 0.4882
 Raman Activ --     6.9571                 6.4610                 8.7540

                   100                    101                    102
                     A                      A                      A
 Frequencies --  1412.2425              1423.2508              1441.0312
 Red. masses --     1.4091                 1.3419                 1.4461
 Frc consts  --     1.6558                 1.6015                 1.7692
 IR Inten    --    26.5615                36.1672                16.0031
 Raman Activ --     1.6984                 0.4700                 1.3550

                   103                    104                    105
                     A                      A                      A
 Frequencies --  1446.6042              1469.7568              1471.4385
 Red. masses --     1.5073                 1.0968                 1.0879
 Frc consts  --     1.8585                 1.3959                 1.3878
 IR Inten    --    52.0658                 6.4813                 3.8443
 Raman Activ --     1.5520                 4.8095                 3.5994

                   106                    107                    108
                     A                      A                      A
 Frequencies --  1480.1917              1552.5354              3242.7686
 Red. masses --     1.2444                 1.1973                 1.0696
 Frc consts  --     1.6063                 1.7004                 6.6267
 IR Inten    --    30.8783                51.4532               759.5036
 Raman Activ --     0.9467                 1.5585               191.7230

                   109                    110                    111
                     A                      A                      A
 Frequencies --  3258.6820              3261.2583              3266.6804
 Red. masses --     1.0565                 1.0778                 1.0637
 Frc consts  --     6.6102                 6.7542                 6.6881
 IR Inten    --    22.0776                 5.4843               115.8533
 Raman Activ --    76.4624               151.1834               143.0897

                   112                    113                    114
                     A                      A                      A
 Frequencies --  3269.9682              3278.4440              3279.7802
 Red. masses --     1.0698                 1.0826                 1.0830
 Frc consts  --     6.7395                 6.8557                 6.8640
 IR Inten    --   706.2878                70.7367                 2.4926
 Raman Activ --    54.9706                20.1069                20.9141

                   115                    116                    117
                     A                      A                      A
 Frequencies --  3281.6616              3282.5777              3286.3242
 Red. masses --     1.0838                 1.0828                 1.0847
 Frc consts  --     6.8771                 6.8741                 6.9024
 IR Inten    --     5.4866                39.4464                19.1678
 Raman Activ --   246.8018                22.0966                58.3471

                   118                    119                    120
                     A                      A                      A
 Frequencies --  3290.2598              3296.0463              3302.2538
 Red. masses --     1.0840                 1.0864                 1.0864
 Frc consts  --     6.9141                 6.9540                 6.9803
 IR Inten    --    91.7611                17.2032                33.0502
 Raman Activ --    45.2683                44.0677                 8.3508

                   121                    122                    123
                     A                      A                      A
 Frequencies --  3305.8438              3320.3628              3322.3313
 Red. masses --     1.0871                 1.1068                 1.1053
 Frc consts  --     6.9995                 7.1896                 7.1881
 IR Inten    --    90.7982                44.3287                57.0472
 Raman Activ --    10.2559                33.9129                26.8794

                   124                    125                    126
                     A                      A                      A
 Frequencies --  3361.4520              3365.8578              3366.8603
 Red. masses --     1.0652                 1.0704                 1.0689
 Frc consts  --     7.0918                 7.1447                 7.1393
 IR Inten    --    28.7170                53.8755                40.2805
 Raman Activ --   106.4659               149.9315               187.9810

                   127                    128                    129
                     A                      A                      A
 Frequencies --  3381.4870              3888.9850              3890.6135
 Red. masses --     1.0674                 1.0676                 1.0673
 Frc consts  --     7.1914                 9.5133                 9.5189
 IR Inten    --    62.1459                71.5429                64.9555
 Raman Activ --   150.2811                89.0991               121.9962

 - Thermochemistry -
 -------------------
 Temperature   298.150 Kelvin.  Pressure   1.00000 Atm.
 Atom     1 has atomic number  8 and mass  15.99491

 Molecular mass:   342.11621 amu.
 Principal axes and moments of inertia in atomic units:
                           1         2         3
     Eigenvalues --  4358.61579********************
           X            0.99997  -0.00776   0.00035
           Y            0.00776   0.99997  -0.00064
           Z           -0.00035   0.00065   1.00000
 This molecule is an asymmetric top.
 Rotational symmetry number  1.
 Warning -- assumption of classical behavior for rotation
           may cause significant error
 Rotational temperatures (Kelvin)      0.01987     0.00701     0.00531
 Rotational constants (GHZ):           0.41406     0.14614     0.11071
    7 imaginary frequencies ignored.
 Zero-point vibrational energy     973593.8 (Joules/Mol)
                                  232.69451 (Kcal/Mol)
 Warning -- explicit consideration of  31 degrees of freedom as
           vibrations may cause significant error
 Vibrational temperatures:     60.99   104.46   116.44   131.81   139.11
          (Kelvin)            236.78   262.11   275.25   304.37   339.98
                              391.55   403.82   421.92   434.58   442.97
                              471.69   477.79   509.20   517.29   551.39
                              589.39   619.68   630.56   636.48   688.10
                              706.30   742.27   767.22   827.03   845.74
                              876.01   904.24   922.72   972.21   981.87
                              989.79   999.74  1080.22  1187.98  1227.34
                             1233.12  1251.02  1328.67  1395.42  1405.82
                             1416.58  1420.32  1438.35  1455.08  1475.13
                             1495.13  1514.35  1531.25  1534.09  1541.76
                             1548.96  1569.19  1581.85  1584.27  1607.45
                             1616.36  1621.89  1626.75  1646.22  1657.42
                             1668.83  1681.20  1708.35  1710.49  1724.33
                             1747.61  1766.52  1773.65  1800.21  1804.96
                             1826.36  1828.16  1852.67  1857.88  1864.57
                             1879.95  1885.35  1903.04  1904.55  1912.17
                             1916.63  1958.16  1963.84  1969.46  1976.51
                             1993.05  2017.42  2031.90  2047.74  2073.32
                             2081.34  2114.65  2117.07  2129.66  2233.75
                             4665.61  4688.51  4692.22  4700.02  4704.75
                             4716.94  4718.87  4721.57  4722.89  4728.28
                             4733.94  4742.27  4751.20  4756.37  4777.26
                             4780.09  4836.37  4842.71  4844.16  4865.20
                             5595.38  5597.72

 Zero-point correction=                           0.370822 (Hartree/Particle)
 Thermal correction to Energy=                    0.389044
 Thermal correction to Enthalpy=                  0.389988
 Thermal correction to Gibbs Free Energy=         0.325404
 Sum of electronic and zero-point Energies=          -1297.636649
 Sum of electronic and thermal Energies=             -1297.618427
 Sum of electronic and thermal Enthalpies=           -1297.617483
 Sum of electronic and thermal Free Energies=        -1297.682067

                     E (Thermal)             CV                S
                      KCal/Mol        Cal/Mol-Kelvin    Cal/Mol-Kelvin
 Total                  244.129             75.810            135.929
 Electronic               0.000              0.000              0.000
 Translational            0.889              2.981             43.384
 Rotational               0.889              2.981             35.127
 Vibrational            242.351             69.848             57.417
 Vibration     1          0.595              1.980              5.144
 Vibration     2          0.599              1.967              4.081
 Vibration     3          0.600              1.962              3.868
 Vibration     4          0.602              1.955              3.625
 Vibration     5          0.603              1.952              3.520
 Vibration     6          0.623              1.886              2.497
 Vibration     7          0.630              1.864              2.306
 Vibration     8          0.634              1.852              2.215
 Vibration     9          0.643              1.823              2.030
 Vibration    10          0.655              1.785              1.831
 Vibration    11          0.675              1.725              1.583
 Vibration    12          0.680              1.709              1.530
 Vibration    13          0.688              1.686              1.455
 Vibration    14          0.694              1.670              1.406
 Vibration    15          0.698              1.659              1.374
 Vibration    16          0.711              1.620              1.271
 Vibration    17          0.714              1.611              1.250
 Vibration    18          0.730              1.567              1.149
 Vibration    19          0.734              1.556              1.124
 Vibration    20          0.752              1.506              1.026
 Vibration    21          0.774              1.449              0.928
 Vibration    22          0.792              1.403              0.856
 Vibration    23          0.798              1.387              0.832
 Vibration    24          0.802              1.378              0.819
 Vibration    25          0.835              1.298              0.715
 Vibration    26          0.847              1.270              0.681
 Vibration    27          0.871              1.215              0.620
 Vibration    28          0.888              1.176              0.580
 Vibration    29          0.931              1.086              0.495
 Vibration    30          0.945              1.058              0.471
 Vibration    31          0.968              1.013              0.435

 Normal termination of Gaussian 09 at Thu Mar 24 14:08:58 2016.
