 Gaussian 09, Revision B.01,
 Gaussian 09:  EM64L-G09RevB.01 12-Aug-2010

 -------------------------------------------------
 # freq=raman b3lyp/6-31+g(2d,p) geom=connectivity
 -------------------------------------------------

 -----------------
 290 9560/9560.com
 -----------------
 Symbolic Z-matrix:
 Charge =  0 Multiplicity = 1

                         Standard orientation:
 ---------------------------------------------------------------------
 Center     Atomic      Atomic             Coordinates (Angstroms)
 Number     Number       Type             X           Y           Z
 ---------------------------------------------------------------------
      1          8           0       -4.978976   -0.223895    0.605393
      2          6           0       -3.757657   -0.063981   -0.131868
      3          6           0       -3.150122    1.229673    0.385635
      4          8           0       -4.132456    2.271930    0.301121
      5          1           0       -4.984977    1.956009    0.717304
      6          6           0       -1.822959    1.614358   -0.248263
      7          8           0       -1.204569    2.810505    0.247163
      8          1           0       -0.230918    2.742483    0.027104
      9          6           0       -3.161777   -2.559222   -0.267659
     10          8           0       -4.372217   -3.207576    0.149455
     11          1           0       -4.323144   -4.198627    0.030497
     12          6           0       -2.764469   -1.167264    0.195430
     13          8           0       -1.514065   -0.814486   -0.414240
     14          6           0       -0.909492    0.423451   -0.010208
     15          8           0        0.313587    0.587029   -0.741771
     16          6           0        1.524955    0.165751   -0.098111
     17          6           0        2.044855   -1.210739   -0.477417
     18          8           0        1.104411   -2.279413   -0.299170
     19          1           0        0.219386   -1.927024   -0.604872
     20          6           0        3.339490   -1.547842    0.243974
     21          8           0        3.962872   -2.725775   -0.287086
     22          1           0        4.667853   -2.995726    0.369922
     23          6           0        2.346937    2.628987   -0.027615
     24          8           0        1.262997    3.363735   -0.614769
     25          1           0        1.443693    4.346786   -0.585348
     26          6           0        2.638138    1.170946   -0.341906
     27          8           0        3.734479    0.805835    0.510179
     28          6           0        4.351886   -0.422761    0.102864
     29          8           0        5.381869   -0.618340    1.082634
     30          1           0        6.189651   -0.898658    0.646160
     31          1           0        3.239519    3.171482   -0.259771
     32          1           0        2.211773    2.687729    1.032187
     33          1           0        2.952742    1.095000   -1.361787
     34          1           0        1.333320    0.151744    0.954495
     35          1           0        2.273803   -1.174054   -1.521993
     36          1           0        3.130438   -1.701327    1.282068
     37          1           0        4.749751   -0.361049   -0.888497
     38          1           0       -5.689828   -0.451270    0.001580
     39          1           0       -2.358730   -3.210793    0.007062
     40          1           0       -3.188125   -2.526954   -1.336848
     41          1           0       -2.627755   -1.192585    1.256358
     42          1           0       -3.944116   -0.008846   -1.184053
     43          1           0       -2.954440    1.078367    1.426652
     44          1           0       -1.970976    1.723311   -1.302359
     45          1           0       -0.681073    0.369464    1.033731
 ---------------------------------------------------------------------

 SCF Done:  E(RB3LYP) =  -1297.99414246     A.U. after   13 cycles

 The electronic state is 1-A.
 Alpha  occ. eigenvalues --  -19.18627 -19.18430 -19.18310 -19.18167 -19.17999
 Alpha  occ. eigenvalues --  -19.16862 -19.16566 -19.16458 -19.14884 -19.14010
 Alpha  occ. eigenvalues --  -19.13307 -10.30684 -10.30612 -10.26538 -10.25814
 Alpha  occ. eigenvalues --  -10.25772 -10.25342 -10.24892 -10.24870 -10.24691
 Alpha  occ. eigenvalues --  -10.24343 -10.23955 -10.23716  -1.09851  -1.09281
 Alpha  occ. eigenvalues --   -1.05507  -1.05065  -1.04191  -1.03908  -1.03058
 Alpha  occ. eigenvalues --   -1.02683  -1.01360  -1.01016  -0.99615  -0.82360
 Alpha  occ. eigenvalues --   -0.80169  -0.79549  -0.78618  -0.72112  -0.70316
 Alpha  occ. eigenvalues --   -0.67287  -0.64616  -0.63249  -0.62469  -0.61688
 Alpha  occ. eigenvalues --   -0.60296  -0.56709  -0.55742  -0.55182  -0.54933
 Alpha  occ. eigenvalues --   -0.54068  -0.53374  -0.52887  -0.52195  -0.51112
 Alpha  occ. eigenvalues --   -0.50552  -0.49830  -0.49396  -0.48481  -0.46607
 Alpha  occ. eigenvalues --   -0.45912  -0.45406  -0.44806  -0.43845  -0.43601
 Alpha  occ. eigenvalues --   -0.42798  -0.41872  -0.41271  -0.40050  -0.38975
 Alpha  occ. eigenvalues --   -0.38824  -0.38162  -0.37485  -0.36485  -0.36141
 Alpha  occ. eigenvalues --   -0.35450  -0.35317  -0.34231  -0.33724  -0.33172
 Alpha  occ. eigenvalues --   -0.32899  -0.31705  -0.30877  -0.30431  -0.30074
 Alpha  occ. eigenvalues --   -0.29039  -0.28810  -0.28525  -0.27006  -0.26782
 Alpha  occ. eigenvalues --   -0.26562
 Alpha virt. eigenvalues --   -0.01954  -0.01865  -0.01836  -0.00131   0.00258
 Alpha virt. eigenvalues --    0.00982   0.01731   0.02343   0.02801   0.03564
 Alpha virt. eigenvalues --    0.03907   0.04469   0.04869   0.05341   0.05556

 Mulliken atomic charges:
              1
     1  O   -0.552945
     2  C   -0.012528
     3  C    0.312348
     4  O   -0.566879
     5  H    0.351370
     6  C   -0.166083
     7  O   -0.556834
     8  H    0.412331
     9  C   -0.320076
    10  O   -0.545055
    11  H    0.344791
    12  C    0.204238
    13  O   -0.292022
    14  C    0.439893
    15  O   -0.255195
    16  C    0.177862
    17  C    0.027163
    18  O   -0.539990
    19  H    0.366001
    20  C    0.077902
    21  O   -0.536714
    22  H    0.334964
    23  C   -0.308752
    24  O   -0.558913
    25  H    0.360760
    26  C   -0.007669
    27  O   -0.244865
    28  C    0.118088
    29  O   -0.542903
    30  H    0.335951
    31  H    0.146061
    32  H    0.159708
    33  H    0.118795
    34  H    0.110152
    35  H    0.115172
    36  H    0.136228
    37  H    0.138816
    38  H    0.341171
    39  H    0.145386
    40  H    0.143132
    41  H    0.114370
    42  H    0.123784
    43  H    0.108465
    44  H    0.123985
    45  H    0.118537
 Sum of Mulliken atomic charges =   0.00000

 Dipole moment (field-independent basis, Debye):
    X=              2.8873    Y=             -1.1861    Z=             -1.4346  Tot=              3.4353
 Quadrupole moment (field-independent basis, Debye-Ang):
   XX=           -114.6317   YY=           -136.0202   ZZ=           -141.2429
   XY=             17.0764   XZ=              1.6335   YZ=             -3.5224

  Exact polarizability: 232.513  -0.669 198.410   0.797  -0.194 144.792
 Approx polarizability: 273.346  -1.045 257.942   0.929  -1.341 240.454

 ******    6 imaginary frequencies (negative Signs) ******

                     1                      2                      3
                     A                      A                      A
 Frequencies --  -313.4780              -292.6104              -247.8850
 Red. masses --     1.7118                 1.7031                 1.1934
 Frc consts  --     0.0991                 0.0859                 0.0432
 IR Inten    --     5.5380                 3.3819               121.0286
 Raman Activ --     0.0548                 0.0446                 1.0151

                     4                      5                      6
                     A                      A                      A
 Frequencies --  -201.5559               -60.3025               -42.8431
 Red. masses --     1.1203                 6.9540                 6.2800
 Frc consts  --     0.0268                 0.0149                 0.0068
 IR Inten    --   102.1468                 0.8276                 0.2665
 Raman Activ --     0.6039                 0.0376                 0.0704

                     7                      8                      9
                     A                      A                      A
 Frequencies --    40.8961                50.6832                78.4599
 Red. masses --     6.7862                 6.5701                 6.0928
 Frc consts  --     0.0067                 0.0099                 0.0221
 IR Inten    --     2.5281                 0.6739                 3.3466
 Raman Activ --     0.0422                 0.0751                 0.2403

                    10                     11                     12
                     A                      A                      A
 Frequencies --    84.8926                96.2283               135.9418
 Red. masses --     6.6908                 6.8962                 5.7724
 Frc consts  --     0.0284                 0.0376                 0.0629
 IR Inten    --     0.5726                 1.5526                 0.4925
 Raman Activ --     0.1018                 0.0811                 0.0400

                    13                     14                     15
                     A                      A                      A
 Frequencies --   147.7753               172.5579               179.7076
 Red. masses --     6.3797                 7.0522                 6.3886
 Frc consts  --     0.0821                 0.1237                 0.1216
 IR Inten    --     4.1190                 1.2922                 5.0820
 Raman Activ --     0.3345                 0.3753                 0.8477

                    16                     17                     18
                     A                      A                      A
 Frequencies --   208.9189               227.7367               264.4455
 Red. masses --     6.2897                 6.4572                 4.0820
 Frc consts  --     0.1617                 0.1973                 0.1682
 IR Inten    --     0.9460                 2.1038                18.1716
 Raman Activ --     0.8114                 2.3993                 0.2205

                    19                     20                     21
                     A                      A                      A
 Frequencies --   282.2049               294.3638               307.2271
 Red. masses --     5.2942                 5.2195                 5.5360
 Frc consts  --     0.2484                 0.2665                 0.3079
 IR Inten    --     2.5131                 1.0178                 1.1685
 Raman Activ --     0.2506                 0.9019                 2.7269

                    22                     23                     24
                     A                      A                      A
 Frequencies --   309.7418               313.5418               335.5087
 Red. masses --     6.3294                 5.7280                 5.6054
 Frc consts  --     0.3578                 0.3318                 0.3718
 IR Inten    --     9.1789                 4.3096                 4.6058
 Raman Activ --     2.3756                 1.9163                 2.1542

                    25                     26                     27
                     A                      A                      A
 Frequencies --   345.7397               358.7300               376.3114
 Red. masses --     6.0989                 4.7472                 7.3471
 Frc consts  --     0.4295                 0.3599                 0.6130
 IR Inten    --     7.9440                 4.6376                 1.4419
 Raman Activ --     1.0776                 0.2204                 1.7130

                    28                     29                     30
                     A                      A                      A
 Frequencies --   404.0262               417.4517               426.1293
 Red. masses --     4.3929                 6.0090                 5.3091
 Frc consts  --     0.4225                 0.6170                 0.5680
 IR Inten    --    17.5457                 4.2554                 1.6897
 Raman Activ --     1.7472                 2.8174                 6.5379

                    31                     32                     33
                     A                      A                      A
 Frequencies --   433.7708               483.1988               489.9877
 Red. masses --     4.6602                 4.5753                 5.1754
 Frc consts  --     0.5166                 0.6294                 0.7321
 IR Inten    --     4.7611                 5.6229                 9.9854
 Raman Activ --     1.0564                 4.2974                 0.3139

                    34                     35                     36
                     A                      A                      A
 Frequencies --   510.8551               528.0263               568.3547
 Red. masses --     3.5847                 3.1965                 4.0540
 Frc consts  --     0.5512                 0.5251                 0.7716
 IR Inten    --    16.8492                 5.9224                 5.4504
 Raman Activ --     2.9815                 3.4677                 1.0252

                    37                     38                     39
                     A                      A                      A
 Frequencies --   584.2048               585.5219               612.5292
 Red. masses --     2.8862                 5.5093                 5.8577
 Frc consts  --     0.5804                 1.1128                 1.2949
 IR Inten    --    43.2592                 4.3294                14.5451
 Raman Activ --     0.3077                 0.6928                 0.6043

                    40                     41                     42
                     A                      A                      A
 Frequencies --   618.3715               651.1354               674.1962
 Red. masses --     3.7382                 1.0828                 5.4173
 Frc consts  --     0.8422                 0.2705                 1.4508
 IR Inten    --    22.2775               113.9236                14.7910
 Raman Activ --     0.8749                 1.9647                 0.4974

                    43                     44                     45
                     A                      A                      A
 Frequencies --   697.2744               748.5309               762.5701
 Red. masses --     1.0777                 1.0843                 1.0652
 Frc consts  --     0.3087                 0.3579                 0.3650
 IR Inten    --   105.0477                81.4161               104.3786
 Raman Activ --     1.6288                 1.3545                 1.8091

                    46                     47                     48
                     A                      A                      A
 Frequencies --   775.5301               800.9066               845.9275
 Red. masses --     1.0790                 1.0740                 1.7908
 Frc consts  --     0.3824                 0.4059                 0.7550
 IR Inten    --   105.2841               108.5921                 1.5075
 Raman Activ --     3.0638                 0.5405                 1.0924

                    49                     50                     51
                     A                      A                      A
 Frequencies --   856.3661               920.9473               949.4464
 Red. masses --     1.7611                 6.1827                 4.6813
 Frc consts  --     0.7610                 3.0896                 2.4863
 IR Inten    --     7.5239               145.3978                31.8541
 Raman Activ --     0.6385                 3.0863                 0.7502

                    52                     53                     54
                     A                      A                      A
 Frequencies --   973.8650               983.9066               985.7889
 Red. masses --     6.9028                 4.8033                 5.3095
 Frc consts  --     3.8572                 2.7396                 3.0400
 IR Inten    --    12.2310                37.4232               110.4170
 Raman Activ --     1.4944                 1.9450                 1.5840

                    55                     56                     57
                     A                      A                      A
 Frequencies --   988.2134              1008.4255              1015.7192
 Red. masses --     6.4032                 6.0683                 5.5636
 Frc consts  --     3.6843                 3.6358                 3.3818
 IR Inten    --   536.6337                43.0284               151.7379
 Raman Activ --     1.0257                 2.8129                 3.2785

                    58                     59                     60
                     A                      A                      A
 Frequencies --  1033.1055              1051.1102              1058.8915
 Red. masses --     7.0309                 6.6774                 5.6621
 Frc consts  --     4.4213                 4.3466                 3.7405
 IR Inten    --   321.4373               174.9599                39.2866
 Raman Activ --     2.3337                 1.3127                 1.1744

                    61                     62                     63
                     A                      A                      A
 Frequencies --  1067.8192              1072.8629              1078.4719
 Red. masses --     3.6930                 4.6071                 3.2260
 Frc consts  --     2.4810                 3.1244                 2.2107
 IR Inten    --     4.4809                 4.8778                11.3365
 Raman Activ --     8.0890                 3.5492                29.2355

                    64                     65                     66
                     A                      A                      A
 Frequencies --  1096.0882              1102.7549              1105.1769
 Red. masses --     3.1518                 2.8268                 2.2261
 Frc consts  --     2.2310                 2.0254                 1.6020
 IR Inten    --    35.5989                72.6173                28.4307
 Raman Activ --     9.8522                 3.1708                 1.0201

                    67                     68                     69
                     A                      A                      A
 Frequencies --  1111.4755              1128.1840              1130.0766
 Red. masses --     3.1554                 2.5237                 2.4714
 Frc consts  --     2.2967                 1.8926                 1.8595
 IR Inten    --    16.6361                52.3316                74.3409
 Raman Activ --     3.6571                 9.1158                 2.8578

                    70                     71                     72
                     A                      A                      A
 Frequencies --  1144.9559              1149.6615              1154.1283
 Red. masses --     2.0629                 1.7450                 2.2031
 Frc consts  --     1.5933                 1.3589                 1.7290
 IR Inten    --     7.4813                 5.1418                 8.7693
 Raman Activ --     3.8097                 3.1878                 3.5393

                    73                     74                     75
                     A                      A                      A
 Frequencies --  1168.6618              1178.1342              1186.3900
 Red. masses --     2.4626                 1.8973                 2.0810
 Frc consts  --     1.9817                 1.5516                 1.7257
 IR Inten    --    25.5557                14.1894                 6.2481
 Raman Activ --     2.7622                 1.5727                 1.1884

                    76                     77                     78
                     A                      A                      A
 Frequencies --  1203.1161              1209.4049              1223.9215
 Red. masses --     1.2399                 1.4072                 1.3596
 Frc consts  --     1.0574                 1.2127                 1.2000
 IR Inten    --    20.3691                18.1914                 1.6716
 Raman Activ --     0.4107                 4.2353                 1.2474

                    79                     80                     81
                     A                      A                      A
 Frequencies --  1229.0824              1252.0380              1261.7646
 Red. masses --     1.2487                 1.3031                 1.1955
 Frc consts  --     1.1114                 1.2036                 1.1214
 IR Inten    --    11.3214                 7.1084                13.1990
 Raman Activ --     1.2823                 1.0159                 0.9592

                    82                     83                     84
                     A                      A                      A
 Frequencies --  1276.3055              1287.9709              1294.0953
 Red. masses --     1.2022                 1.4088                 1.2023
 Frc consts  --     1.1539                 1.3769                 1.1863
 IR Inten    --     6.4842                39.1446                13.2071
 Raman Activ --     0.9310                 0.8549                 3.9168

                    85                     86                     87
                     A                      A                      A
 Frequencies --  1300.8943              1300.9833              1309.1964
 Red. masses --     1.1623                 1.3813                 1.2625
 Frc consts  --     1.1590                 1.3775                 1.2749
 IR Inten    --    13.6740                 5.0475                40.9451
 Raman Activ --     5.9533                 4.3311                 8.3820

                    88                     89                     90
                     A                      A                      A
 Frequencies --  1314.5249              1324.6370              1327.9656
 Red. masses --     1.1922                 1.2910                 1.2141
 Frc consts  --     1.2137                 1.3346                 1.2614
 IR Inten    --    20.0254                28.7662                 9.4501
 Raman Activ --     3.1724                 4.3927                12.3809

                    91                     92                     93
                     A                      A                      A
 Frequencies --  1341.8243              1348.3215              1349.0635
 Red. masses --     1.1558                 1.2224                 1.2068
 Frc consts  --     1.2261                 1.3093                 1.2941
 IR Inten    --    37.7148                23.2515                29.3563
 Raman Activ --     1.2561                 2.0848                 1.8557

                    94                     95                     96
                     A                      A                      A
 Frequencies --  1353.6324              1359.9571              1368.8601
 Red. masses --     1.1880                 1.4352                 1.4723
 Frc consts  --     1.2825                 1.5639                 1.6254
 IR Inten    --    17.7234                15.6237                 1.5217
 Raman Activ --     4.5480                 4.0113                 7.3407

                    97                     98                     99
                     A                      A                      A
 Frequencies --  1381.4774              1391.3610              1403.3627
 Red. masses --     1.5477                 1.6480                 1.3402
 Frc consts  --     1.7403                 1.8797                 1.5551
 IR Inten    --     5.5118                 9.7744                 1.1448
 Raman Activ --     7.0329                 3.4274                 7.3808

                   100                    101                    102
                     A                      A                      A
 Frequencies --  1431.3291              1444.5427              1451.3408
 Red. masses --     1.4122                 1.3339                 1.3649
 Frc consts  --     1.7046                 1.6400                 1.6939
 IR Inten    --    49.0975                30.5285                 9.6300
 Raman Activ --     0.9459                 1.5747                 1.8841

                   103                    104                    105
                     A                      A                      A
 Frequencies --  1457.1119              1473.2589              1474.0786
 Red. masses --     1.3616                 1.1218                 1.1078
 Frc consts  --     1.7033                 1.4346                 1.4183
 IR Inten    --     7.8463                 4.2133                 1.0188
 Raman Activ --     1.9544                 3.4131                 3.0236

                   106                    107                    108
                     A                      A                      A
 Frequencies --  1474.4933              1497.1316              3254.7327
 Red. masses --     1.3183                 1.3092                 1.0584
 Frc consts  --     1.6887                 1.7289                 6.6060
 IR Inten    --    80.8197                43.9716                30.4778
 Raman Activ --     3.1557                 1.4194                82.0815

                   109                    110                    111
                     A                      A                      A
 Frequencies --  3258.5821              3262.0002              3263.4445
 Red. masses --     1.0614                 1.0795                 1.0804
 Frc consts  --     6.6400                 6.7676                 6.7794
 IR Inten    --   124.4219                16.6631                33.9708
 Raman Activ --    13.1300               117.3759                42.6962

                   112                    113                    114
                     A                      A                      A
 Frequencies --  3267.6747              3272.4743              3275.7130
 Red. masses --     1.0822                 1.0810                 1.0821
 Frc consts  --     6.8079                 6.8204                 6.8413
 IR Inten    --     3.7717                49.1888                83.7869
 Raman Activ --    13.8173               165.5467               164.6392

                   115                    116                    117
                     A                      A                      A
 Frequencies --  3281.1534              3284.0940              3290.3243
 Red. masses --     1.0768                 1.0842                 1.0852
 Frc consts  --     6.8304                 6.8893                 6.9223
 IR Inten    --   290.0492                41.0205                21.3005
 Raman Activ --    86.4806                 9.4551                81.8151

                   118                    119                    120
                     A                      A                      A
 Frequencies --  3292.0107              3300.5423              3303.3436
 Red. masses --     1.0814                 1.0919                 1.0875
 Frc consts  --     6.9051                 7.0082                 6.9916
 IR Inten    --   133.0021                36.2592                63.7707
 Raman Activ --   106.0554                21.9503                 7.7425

                   121                    122                    123
                     A                      A                      A
 Frequencies --  3308.2932              3313.5375              3329.6641
 Red. masses --     1.0985                 1.1045                 1.0673
 Frc consts  --     7.0834                 7.1449                 6.9714
 IR Inten    --    81.8860                44.8744               346.8372
 Raman Activ --    23.6456                53.9289               141.9492

                   124                    125                    126
                     A                      A                      A
 Frequencies --  3360.7735              3367.3164              3375.4061
 Red. masses --     1.0659                 1.0649                 1.0679
 Frc consts  --     7.0934                 7.1142                 7.1682
 IR Inten    --    37.6548                50.8235                79.7058
 Raman Activ --   127.1742               102.5933               152.5871

                   127                    128                    129
                     A                      A                      A
 Frequencies --  3377.0207              3891.7193              3893.8947
 Red. masses --     1.0682                 1.0674                 1.0673
 Frc consts  --     7.1773                 9.5250                 9.5344
 IR Inten    --    63.1813                80.4972                70.9360
 Raman Activ --   166.9710                90.6031               116.7410

 - Thermochemistry -
 -------------------
 Temperature   298.150 Kelvin.  Pressure   1.00000 Atm.
 Atom     1 has atomic number  8 and mass  15.99491

 Molecular mass:   342.11621 amu.
 Principal axes and moments of inertia in atomic units:
                           1         2         3
     Eigenvalues --  4547.16719********************
           X            0.99997   0.00827  -0.00020
           Y           -0.00827   0.99997   0.00031
           Z            0.00020  -0.00031   1.00000
 This molecule is an asymmetric top.
 Rotational symmetry number  1.
 Warning -- assumption of classical behavior for rotation
           may cause significant error
 Rotational temperatures (Kelvin)      0.01905     0.00694     0.00527
 Rotational constants (GHZ):           0.39689     0.14462     0.10974
    6 imaginary frequencies ignored.
 Zero-point vibrational energy     974187.9 (Joules/Mol)
                                  232.83650 (Kcal/Mol)
 Warning -- explicit consideration of  34 degrees of freedom as
           vibrations may cause significant error
 Vibrational temperatures:     58.84    72.92   112.89   122.14   138.45
          (Kelvin)            195.59   212.62   248.27   258.56   300.59
                              327.66   380.48   406.03   423.52   442.03
                              445.65   451.12   482.72   497.44   516.13
                              541.43   581.30   600.62   613.10   624.10
                              695.21   704.98   735.01   759.71   817.73
                              840.54   842.43   881.29   889.70   936.84
                              970.02  1003.22  1076.97  1097.17  1115.81
                             1152.32  1217.10  1232.12  1325.04  1366.04
                             1401.17  1415.62  1418.33  1421.82  1450.90
                             1461.39  1486.41  1512.31  1523.51  1536.35
                             1543.61  1551.68  1577.02  1586.62  1590.10
                             1599.16  1623.20  1625.93  1647.33  1654.10
                             1660.53  1681.44  1695.07  1706.95  1731.01
                             1740.06  1760.95  1768.37  1801.40  1815.40
                             1836.32  1853.10  1861.91  1871.69  1871.82
                             1883.64  1891.31  1905.85  1910.64  1930.58
                             1939.93  1941.00  1947.57  1956.67  1969.48
                             1987.64  2001.86  2019.12  2059.36  2078.37
                             2088.15  2096.46  2119.69  2120.87  2121.46
                             2154.04  4682.83  4688.37  4693.28  4695.36
                             4701.45  4708.35  4713.01  4720.84  4725.07
                             4734.04  4736.46  4748.74  4752.77  4759.89
                             4767.44  4790.64  4835.40  4844.81  4856.45
                             4858.77  5599.31  5602.44

 Zero-point correction=                           0.371049 (Hartree/Particle)
 Thermal correction to Energy=                    0.390204
 Thermal correction to Enthalpy=                  0.391148
 Thermal correction to Gibbs Free Energy=         0.324258
 Sum of electronic and zero-point Energies=          -1297.623094
 Sum of electronic and thermal Energies=             -1297.603938
 Sum of electronic and thermal Enthalpies=           -1297.602994
 Sum of electronic and thermal Free Energies=        -1297.669884

                     E (Thermal)             CV                S
                      KCal/Mol        Cal/Mol-Kelvin    Cal/Mol-Kelvin
 Total                  244.857             78.129            140.782
 Electronic               0.000              0.000              0.000
 Translational            0.889              2.981             43.384
 Rotational               0.889              2.981             35.188
 Vibrational            243.079             72.168             62.209
 Vibration     1          0.594              1.981              5.215
 Vibration     2          0.595              1.977              4.791
 Vibration     3          0.600              1.964              3.929
 Vibration     4          0.601              1.960              3.774
 Vibration     5          0.603              1.952              3.529
 Vibration     6          0.614              1.917              2.860
 Vibration     7          0.617              1.905              2.701
 Vibration     8          0.626              1.876              2.407
 Vibration     9          0.629              1.867              2.331
 Vibration    10          0.642              1.827              2.053
 Vibration    11          0.651              1.799              1.897
 Vibration    12          0.671              1.738              1.632
 Vibration    13          0.681              1.707              1.520
 Vibration    14          0.689              1.684              1.449
 Vibration    15          0.697              1.660              1.377
 Vibration    16          0.699              1.655              1.364
 Vibration    17          0.701              1.648              1.344
 Vibration    18          0.717              1.605              1.233
 Vibration    19          0.724              1.584              1.186
 Vibration    20          0.734              1.557              1.128
 Vibration    21          0.747              1.521              1.054
 Vibration    22          0.769              1.461              0.948
 Vibration    23          0.780              1.432              0.901
 Vibration    24          0.788              1.413              0.871
 Vibration    25          0.795              1.397              0.846
 Vibration    26          0.839              1.287              0.701
 Vibration    27          0.846              1.272              0.684
 Vibration    28          0.866              1.226              0.632
 Vibration    29          0.883              1.188              0.592
 Vibration    30          0.924              1.100              0.507
 Vibration    31          0.941              1.066              0.478
 Vibration    32          0.943              1.063              0.475
 Vibration    33          0.972              1.005              0.429
 Vibration    34          0.978              0.993              0.419

 Normal termination of Gaussian 09 at Wed Mar 23 05:10:42 2016.
