 Gaussian 09, Revision B.01,
 Gaussian 09:  EM64L-G09RevB.01 12-Aug-2010

 --------------------------------------------------
 # freq=raman b3lyp/6-31+g(2df,p) geom=connectivity
 --------------------------------------------------

 ------------
 450 8000.com
 ------------
 Symbolic Z-matrix:
 Charge =  0 Multiplicity = 1

                         Standard orientation:
 ---------------------------------------------------------------------
 Center     Atomic      Atomic             Coordinates (Angstroms)
 Number     Number       Type             X           Y           Z
 ---------------------------------------------------------------------
      1          8           0        4.951323    0.358939    0.922179
      2          6           0        3.889380    0.126041   -0.013881
      3          6           0        3.347281   -1.280451    0.185142
      4          8           0        4.115051   -2.345286   -0.394764
      5          1           0        5.076177   -2.117997   -0.243597
      6          6           0        1.867344   -1.578783    0.008004
      7          8           0        1.365912   -2.594482    0.889169
      8          1           0        2.027453   -3.304014    1.128985
      9          6           0        3.331757    2.488105   -0.270157
     10          8           0        2.415677    3.583948   -0.407991
     11          1           0        2.924270    4.425860   -0.584903
     12          6           0        2.765633    1.138047    0.138292
     13          8           0        1.609194    0.858954   -0.665064
     14          6           0        1.012058   -0.329237   -0.127728
     15          8           0       -0.213303   -0.500006   -0.852932
     16          6           0       -1.439450   -0.183373   -0.178544
     17          6           0       -1.967793    1.238369   -0.274448
     18          8           0       -1.020028    2.157838    0.286632
     19          1           0       -0.127942    1.917510   -0.098803
     20          6           0       -3.270301    1.334401    0.503346
     21          8           0       -3.541379    2.733177    0.674960
     22          1           0       -2.919905    3.206892    1.298037
     23          6           0       -2.169754   -2.584610   -0.631289
     24          8           0       -1.945470   -3.293556    0.595938
     25          1           0       -0.985319   -3.568770    0.635088
     26          6           0       -2.497990   -1.106661   -0.761698
     27          8           0       -3.803833   -0.975215   -0.182007
     28          6           0       -4.229984    0.394470   -0.207762
     29          8           0       -5.479221    0.342620    0.497899
     30          1           0       -6.130677   -0.115662   -0.037996
     31          1           0       -4.387112    0.715506   -1.216298
     32          1           0       -3.095430    0.927035    1.477191
     33          1           0       -2.143891    1.486738   -1.300217
     34          1           0       -1.319662   -0.423139    0.857343
     35          1           0       -2.581198   -0.882456   -1.804631
     36          1           0       -1.290423   -2.739702   -1.220885
     37          1           0       -2.965047   -3.103137   -1.124785
     38          1           0        5.780098    0.049496    0.549382
     39          1           0        3.830549    2.361242   -1.208246
     40          1           0        4.065102    2.766830    0.457454
     41          1           0        2.472486    1.180002    1.166497
     42          1           0        4.285310    0.202463   -1.004992
     43          1           0        3.489528   -1.427808    1.235357
     44          1           0        1.810853   -2.032017   -0.959616
     45          1           0        0.724306   -0.078228    0.871818
 ---------------------------------------------------------------------

 SCF Done:  E(RB3LYP) =  -1297.98925901     A.U. after   14 cycles

 The electronic state is 1-A.
 Alpha  occ. eigenvalues --  -19.20128 -19.19797 -19.19164 -19.18612 -19.17936
 Alpha  occ. eigenvalues --  -19.16633 -19.16381 -19.14872 -19.14615 -19.14329
 Alpha  occ. eigenvalues --  -19.14235 -10.31468 -10.29001 -10.27941 -10.27269
 Alpha  occ. eigenvalues --  -10.27104 -10.26650 -10.24949 -10.24423 -10.24011
 Alpha  occ. eigenvalues --  -10.23968 -10.23299 -10.21993  -1.10510  -1.07951
 Alpha  occ. eigenvalues --   -1.07263  -1.06040  -1.04659  -1.04186  -1.02862
 Alpha  occ. eigenvalues --   -1.02371  -1.00835  -0.99981  -0.99476  -0.82991
 Alpha  occ. eigenvalues --   -0.81953  -0.79248  -0.77749  -0.72700  -0.69774
 Alpha  occ. eigenvalues --   -0.68060  -0.65233  -0.63527  -0.62276  -0.60916
 Alpha  occ. eigenvalues --   -0.60090  -0.57909  -0.57156  -0.55230  -0.54334
 Alpha  occ. eigenvalues --   -0.53159  -0.53109  -0.52870  -0.52542  -0.51193
 Alpha  occ. eigenvalues --   -0.50204  -0.49881  -0.49088  -0.48196  -0.47977
 Alpha  occ. eigenvalues --   -0.46165  -0.45085  -0.44682  -0.43899  -0.43347
 Alpha  occ. eigenvalues --   -0.42711  -0.41955  -0.41195  -0.40330  -0.39728
 Alpha  occ. eigenvalues --   -0.39212  -0.38229  -0.37737  -0.36667  -0.36391
 Alpha  occ. eigenvalues --   -0.35394  -0.35134  -0.33840  -0.33364  -0.32632
 Alpha  occ. eigenvalues --   -0.32458  -0.31672  -0.31217  -0.30935  -0.29695
 Alpha  occ. eigenvalues --   -0.29538  -0.29146  -0.28552  -0.27664  -0.26624
 Alpha  occ. eigenvalues --   -0.26123
 Alpha virt. eigenvalues --   -0.04643  -0.02009  -0.01390   0.00044   0.00648
 Alpha virt. eigenvalues --    0.01071   0.01252   0.02227   0.02472   0.03190
 Alpha virt. eigenvalues --    0.03843   0.04230   0.04863   0.05196   0.05377

 Mulliken atomic charges:
              1
     1  O   -0.424265
     2  C   -0.188260
     3  C    0.021584
     4  O   -0.448975
     5  H    0.324334
     6  C   -0.129262
     7  O   -0.516496
     8  H    0.377341
     9  C   -0.417849
    10  O   -0.449344
    11  H    0.347376
    12  C    0.169660
    13  O   -0.023728
    14  C    0.132307
    15  O   -0.096445
    16  C    0.057310
    17  C    0.018797
    18  O   -0.488283
    19  H    0.389530
    20  C   -0.177313
    21  O   -0.447447
    22  H    0.368319
    23  C   -0.425542
    24  O   -0.411212
    25  H    0.353053
    26  C   -0.187521
    27  O   -0.072917
    28  C    0.178797
    29  O   -0.437935
    30  H    0.332836
    31  H    0.125285
    32  H    0.135613
    33  H    0.126199
    34  H    0.138882
    35  H    0.124564
    36  H    0.147966
    37  H    0.143602
    38  H    0.340049
    39  H    0.134886
    40  H    0.168397
    41  H    0.133720
    42  H    0.137550
    43  H    0.147988
    44  H    0.145821
    45  H    0.121028
 Sum of Mulliken atomic charges =   0.00000

 Dipole moment (field-independent basis, Debye):
    X=              9.5270    Y=             -0.5681    Z=             -2.0310  Tot=              9.7576
 Quadrupole moment (field-independent basis, Debye-Ang):
   XX=           -114.2258   YY=           -141.2574   ZZ=           -139.7836
   XY=              4.8787   XZ=             10.8714   YZ=              0.5273

  Exact polarizability: 226.282  -2.413 198.492   1.362   0.962 147.342
 Approx polarizability: 271.010  -1.601 259.750   1.272   0.095 242.027

 ******    8 imaginary frequencies (negative Signs) ******

                     1                      2                      3
                     A                      A                      A
 Frequencies --  -270.2945              -246.8261              -212.5737
 Red. masses --     1.7526                 1.5912                 1.2167
 Frc consts  --     0.0754                 0.0571                 0.0324
 IR Inten    --     4.3189                 2.5164                92.2112
 Raman Activ --     0.1237                 0.1060                 0.9523

                     4                      5                      6
                     A                      A                      A
 Frequencies --  -146.4551               -85.1499               -63.6407
 Red. masses --     1.1433                 5.7359                 6.3207
 Frc consts  --     0.0144                 0.0245                 0.0151
 IR Inten    --   109.8992                 2.3767                 1.8882
 Raman Activ --     1.5329                 0.0226                 0.0478

                     7                      8                      9
                     A                      A                      A
 Frequencies --   -43.6328               -36.4400                37.6538
 Red. masses --     6.0956                 6.1433                 7.1522
 Frc consts  --     0.0068                 0.0048                 0.0060
 IR Inten    --     0.2114                 2.0790                 0.4623
 Raman Activ --     0.1156                 0.0689                 0.1475

                    10                     11                     12
                     A                      A                      A
 Frequencies --    72.1094               106.9347               111.2447
 Red. masses --     6.5617                 6.1036                 6.8356
 Frc consts  --     0.0201                 0.0411                 0.0498
 IR Inten    --     4.0373                 1.6768                 1.0462
 Raman Activ --     0.2387                 0.1129                 0.1507

                    13                     14                     15
                     A                      A                      A
 Frequencies --   118.5725               150.0975               179.9846
 Red. masses --     5.3366                 6.5223                 5.9054
 Frc consts  --     0.0442                 0.0866                 0.1127
 IR Inten    --     5.5602                 0.4995                 0.5723
 Raman Activ --     0.3999                 0.6624                 0.2006

                    16                     17                     18
                     A                      A                      A
 Frequencies --   195.5618               229.9572               236.4712
 Red. masses --     5.9960                 6.0188                 5.5783
 Frc consts  --     0.1351                 0.1875                 0.1838
 IR Inten    --     5.8453                 0.3509                 1.0355
 Raman Activ --     0.7612                 1.0492                 0.6645

                    19                     20                     21
                     A                      A                      A
 Frequencies --   241.9414               269.7629               285.1586
 Red. masses --     6.6647                 4.9222                 6.9978
 Frc consts  --     0.2299                 0.2110                 0.3353
 IR Inten    --     4.3535                11.9366                 0.8991
 Raman Activ --     1.3501                 0.1299                 1.1575

                    22                     23                     24
                     A                      A                      A
 Frequencies --   288.8899               324.6457               339.3969
 Red. masses --     4.9588                 5.4233                 5.7615
 Frc consts  --     0.2438                 0.3368                 0.3910
 IR Inten    --     8.6796                 4.3003                11.0238
 Raman Activ --     0.7573                 1.1470                 0.7934

                    25                     26                     27
                     A                      A                      A
 Frequencies --   348.2918               358.3942               385.9149
 Red. masses --     5.7772                 6.3779                 4.3344
 Frc consts  --     0.4129                 0.4827                 0.3803
 IR Inten    --     3.2727                 0.4233                 2.9816
 Raman Activ --     6.0943                 0.5048                 1.8845

                    28                     29                     30
                     A                      A                      A
 Frequencies --   409.6182               427.1344               443.7934
 Red. masses --     6.1384                 6.8579                 5.1556
 Frc consts  --     0.6068                 0.7372                 0.5983
 IR Inten    --    18.8874                 1.0703                 2.9899
 Raman Activ --     2.2950                 2.4993                 1.8593

                    31                     32                     33
                     A                      A                      A
 Frequencies --   466.1520               475.1788               506.8477
 Red. masses --     5.1210                 5.1876                 4.1193
 Frc consts  --     0.6556                 0.6901                 0.6235
 IR Inten    --     8.6310                 2.7061                 3.6997
 Raman Activ --     2.1220                 5.8769                 1.3604

                    34                     35                     36
                     A                      A                      A
 Frequencies --   522.6861               541.6967               557.8374
 Red. masses --     4.5193                 3.6457                 3.6915
 Frc consts  --     0.7275                 0.6303                 0.6768
 IR Inten    --    23.9439                22.0102                46.3106
 Raman Activ --     3.1937                 4.3354                 2.3619

                    37                     38                     39
                     A                      A                      A
 Frequencies --   570.7272               585.9994               610.2059
 Red. masses --     3.6196                 3.2204                 1.1541
 Frc consts  --     0.6947                 0.6516                 0.2532
 IR Inten    --    58.8220                 3.0548                99.9571
 Raman Activ --     1.1471                 0.3638                 1.6958

                    40                     41                     42
                     A                      A                      A
 Frequencies --   617.3613               627.8170               654.9955
 Red. masses --     3.0313                 1.1285                 4.7517
 Frc consts  --     0.6807                 0.2621                 1.2011
 IR Inten    --    19.7753                52.3270                 8.3205
 Raman Activ --     0.8317                 1.4772                 0.3768

                    43                     44                     45
                     A                      A                      A
 Frequencies --   685.4558               686.8298               708.1886
 Red. masses --     1.0645                 2.8486                 1.0926
 Frc consts  --     0.2947                 0.7917                 0.3229
 IR Inten    --   104.4448                40.2161               109.2514
 Raman Activ --     2.1710                 0.4436                 1.8546

                    46                     47                     48
                     A                      A                      A
 Frequencies --   712.0582               844.0944               845.4242
 Red. masses --     1.1922                 1.3354                 2.1579
 Frc consts  --     0.3561                 0.5606                 0.9087
 IR Inten    --   105.0421                29.2684                48.8469
 Raman Activ --     1.5623                 2.2887                 2.3694

                    49                     50                     51
                     A                      A                      A
 Frequencies --   850.2054               870.2032               948.6100
 Red. masses --     2.1512                 2.5223                 5.6237
 Frc consts  --     0.9162                 1.1253                 2.9816
 IR Inten    --    22.4995                14.2294                 4.5878
 Raman Activ --     3.2661                 1.7117                 1.7397

                    52                     53                     54
                     A                      A                      A
 Frequencies --   958.4703               965.4932               988.0130
 Red. masses --     6.4740                 5.8322                 6.6332
 Frc consts  --     3.5041                 3.2032                 3.8150
 IR Inten    --   342.5805                16.3851               135.9872
 Raman Activ --     2.7228                 3.4421                 1.2710

                    55                     56                     57
                     A                      A                      A
 Frequencies --  1001.2085              1012.7933              1022.9609
 Red. masses --     5.8207                 4.8441                 5.6661
 Frc consts  --     3.4378                 2.9275                 3.4934
 IR Inten    --   288.4737                32.3703               126.0149
 Raman Activ --     2.0333                 0.8427                 2.1772

                    58                     59                     60
                     A                      A                      A
 Frequencies --  1029.1082              1041.2012              1048.5584
 Red. masses --     2.7037                 2.7263                 6.2305
 Frc consts  --     1.6871                 1.7414                 4.0361
 IR Inten    --   110.0859               210.2772                99.4622
 Raman Activ --     1.6320                 6.3957                 0.5406

                    61                     62                     63
                     A                      A                      A
 Frequencies --  1054.8515              1065.2412              1077.6009
 Red. masses --     4.7246                 4.9868                 3.6703
 Frc consts  --     3.0974                 3.3340                 2.5111
 IR Inten    --    57.9342                40.9208                36.4883
 Raman Activ --     3.0291                 5.8532                 5.9110

                    64                     65                     66
                     A                      A                      A
 Frequencies --  1081.7100              1089.7436              1100.0597
 Red. masses --     2.5780                 3.0764                 3.4489
 Frc consts  --     1.7772                 2.1525                 2.4590
 IR Inten    --    63.1594                89.9375                22.4003
 Raman Activ --     3.3462                11.6213                 2.0555

                    67                     68                     69
                     A                      A                      A
 Frequencies --  1108.7097              1137.8000              1147.8297
 Red. masses --     3.7611                 2.8486                 2.6956
 Frc consts  --     2.7239                 2.1728                 2.0925
 IR Inten    --     1.1723                37.5681                30.2353
 Raman Activ --    11.8689                 3.3240                 0.9614

                    70                     71                     72
                     A                      A                      A
 Frequencies --  1152.4422              1158.8839              1167.0147
 Red. masses --     1.8687                 3.3031                 2.9223
 Frc consts  --     1.4623                 2.6137                 2.3449
 IR Inten    --     7.6480                34.3396                47.9354
 Raman Activ --     1.0270                 1.7905                 4.2174

                    73                     74                     75
                     A                      A                      A
 Frequencies --  1174.0851              1178.9170              1198.3749
 Red. masses --     2.4449                 2.1901                 1.4377
 Frc consts  --     1.9857                 1.7934                 1.2165
 IR Inten    --     9.6172                 8.4413                17.8992
 Raman Activ --     5.5304                 1.1386                 1.3826

                    76                     77                     78
                     A                      A                      A
 Frequencies --  1203.5400              1230.4596              1236.0312
 Red. masses --     1.3711                 1.2634                 1.2543
 Frc consts  --     1.1701                 1.1270                 1.1291
 IR Inten    --    11.9055                16.8668                24.6994
 Raman Activ --     1.9918                 1.4271                 3.8612

                    79                     80                     81
                     A                      A                      A
 Frequencies --  1241.2257              1259.9541              1271.0171
 Red. masses --     1.2021                 1.3564                 1.1280
 Frc consts  --     1.0911                 1.2687                 1.0736
 IR Inten    --     2.9248                31.3797                 2.3790
 Raman Activ --     2.6779                 1.0642                 3.2909

                    82                     83                     84
                     A                      A                      A
 Frequencies --  1274.4950              1296.2291              1299.3690
 Red. masses --     1.3307                 1.1258                 1.1300
 Frc consts  --     1.2735                 1.1145                 1.1241
 IR Inten    --    17.8832                17.2104                 2.1502
 Raman Activ --     1.4050                 1.9166                 3.4923

                    85                     86                     87
                     A                      A                      A
 Frequencies --  1302.8996              1311.2841              1314.3223
 Red. masses --     1.2029                 1.1941                 1.4659
 Frc consts  --     1.2031                 1.2097                 1.4919
 IR Inten    --     0.6813                11.6616                 9.1437
 Raman Activ --     6.0349                 4.1368                 3.0735

                    88                     89                     90
                     A                      A                      A
 Frequencies --  1319.1696              1329.4263              1335.2736
 Red. masses --     1.4706                 1.2136                 1.1550
 Frc consts  --     1.5078                 1.2637                 1.2133
 IR Inten    --     9.4905                46.0798                15.3709
 Raman Activ --     1.5670                 4.1815                 1.5494

                    91                     92                     93
                     A                      A                      A
 Frequencies --  1337.2859              1352.1629              1352.7141
 Red. masses --     1.2271                 1.6140                 1.2537
 Frc consts  --     1.2929                 1.7387                 1.3516
 IR Inten    --    19.5840                 3.6801                60.7204
 Raman Activ --     6.6058                 3.8863                 2.1209

                    94                     95                     96
                     A                      A                      A
 Frequencies --  1363.3659              1367.1597              1382.4319
 Red. masses --     1.2268                 1.3672                 1.3236
 Frc consts  --     1.3435                 1.5056                 1.4904
 IR Inten    --    15.6446                16.9597                18.5043
 Raman Activ --     2.3123                 3.1346                 1.5891

                    97                     98                     99
                     A                      A                      A
 Frequencies --  1394.7069              1396.5238              1402.2439
 Red. masses --     1.4259                 1.2435                 1.2713
 Frc consts  --     1.6342                 1.4288                 1.4729
 IR Inten    --     0.7284                 1.8408                27.2101
 Raman Activ --     2.9519                 7.4053                 2.2583

                   100                    101                    102
                     A                      A                      A
 Frequencies --  1423.1320              1430.6200              1435.4792
 Red. masses --     1.6211                 1.2733                 1.1632
 Frc consts  --     1.9344                 1.5354                 1.4122
 IR Inten    --    13.4049                10.1339                 6.3312
 Raman Activ --     6.0206                 6.6646                 3.6285

                   103                    104                    105
                     A                      A                      A
 Frequencies --  1449.5565              1456.1634              1456.4926
 Red. masses --     1.3798                 1.1113                 1.3789
 Frc consts  --     1.7082                 1.3883                 1.7235
 IR Inten    --    19.2941                 2.3730                40.5786
 Raman Activ --     2.7301                 3.7334                 2.2948

                   106                    107                    108
                     A                      A                      A
 Frequencies --  1467.1033              1471.4966              3249.0528
 Red. masses --     1.1867                 1.3124                 1.0786
 Frc consts  --     1.5049                 1.6743                 6.7088
 IR Inten    --    40.9954                54.6365                 6.6109
 Raman Activ --     2.3173                 1.1768                89.3946

                   109                    110                    111
                     A                      A                      A
 Frequencies --  3254.2642              3255.2374              3258.0208
 Red. masses --     1.0750                 1.0649                 1.0634
 Frc consts  --     6.7077                 6.6483                 6.6504
 IR Inten    --     8.7754                27.7238                15.4184
 Raman Activ --    66.0588                59.2946                72.2674

                   112                    113                    114
                     A                      A                      A
 Frequencies --  3268.8910              3272.2863              3272.6553
 Red. masses --     1.0830                 1.0802                 1.0825
 Frc consts  --     6.8186                 6.8149                 6.8310
 IR Inten    --     8.7886                 5.5035                 9.8061
 Raman Activ --     3.3866                32.7569                32.4033

                   115                    116                    117
                     A                      A                      A
 Frequencies --  3273.6915              3277.0103              3284.8693
 Red. masses --     1.0836                 1.0798                 1.0851
 Frc consts  --     6.8419                 6.8322                 6.8985
 IR Inten    --    17.1789                31.5330                12.4300
 Raman Activ --    63.9763               297.6691                 6.9854

                   118                    119                    120
                     A                      A                      A
 Frequencies --  3286.7301              3298.2479              3305.6600
 Red. masses --     1.0863                 1.0857                 1.1016
 Frc consts  --     6.9142                 6.9588                 7.0923
 IR Inten    --    32.9398                95.1944                41.1060
 Raman Activ --     5.7455                 9.6168                68.5806

                   121                    122                    123
                     A                      A                      A
 Frequencies --  3312.3048              3316.1875              3360.5256
 Red. masses --     1.1008                 1.0708                 1.0706
 Frc consts  --     7.1160                 6.9379                 7.1233
 IR Inten    --    46.1363               259.3005                70.4221
 Raman Activ --    49.1951               151.6884               100.7306

                   124                    125                    126
                     A                      A                      A
 Frequencies --  3365.8795              3366.7116              3373.7646
 Red. masses --     1.0657                 1.0673                 1.0674
 Frc consts  --     7.1132                 7.1275                 7.1583
 IR Inten    --    14.5940                53.8529                84.6399
 Raman Activ --   115.7681               180.1676                77.3397

                   127                    128                    129
                     A                      A                      A
 Frequencies --  3374.4866              3868.7854              3873.8961
 Red. masses --     1.0675                 1.0674                 1.0667
 Frc consts  --     7.1623                 9.4130                 9.4318
 IR Inten    --    64.4318                56.3961                54.7568
 Raman Activ --    97.6624               103.4815               135.6139

 - Thermochemistry -
 -------------------
 Temperature   298.150 Kelvin.  Pressure   1.00000 Atm.
 Atom     1 has atomic number  8 and mass  15.99491

 Molecular mass:   342.11621 amu.
 Principal axes and moments of inertia in atomic units:
                           1         2         3
     Eigenvalues --  4631.84921********************
           X            0.99998   0.00594   0.00299
           Y           -0.00594   0.99998   0.00212
           Z           -0.00298  -0.00214   0.99999
 This molecule is an asymmetric top.
 Rotational symmetry number  1.
 Warning -- assumption of classical behavior for rotation
           may cause significant error
 Rotational temperatures (Kelvin)      0.01870     0.00732     0.00553
 Rotational constants (GHZ):           0.38964     0.15250     0.11513
    8 imaginary frequencies ignored.
 Zero-point vibrational energy     971030.8 (Joules/Mol)
                                  232.08192 (Kcal/Mol)
 Warning -- explicit consideration of  32 degrees of freedom as
           vibrations may cause significant error
 Vibrational temperatures:     54.18   103.75   153.85   160.06   170.60
          (Kelvin)            215.96   258.96   281.37   330.86   340.23
                              348.10   388.13   410.28   415.65   467.09
                              488.32   501.11   515.65   555.24   589.35
                              614.55   638.52   670.69   683.68   729.24
                              752.03   779.38   802.60   821.15   843.12
                              877.95   888.24   903.29   942.39   986.22
                              988.19  1018.92  1024.49  1214.46  1216.38
                             1223.25  1252.03  1364.84  1379.02  1389.13
                             1421.53  1440.51  1457.18  1471.81  1480.66
                             1498.05  1508.64  1517.69  1532.64  1550.43
                             1556.34  1567.90  1582.74  1595.18  1637.04
                             1651.47  1658.11  1667.37  1679.07  1689.24
                             1696.20  1724.19  1731.62  1770.35  1778.37
                             1785.84  1812.79  1828.71  1833.71  1864.98
                             1869.50  1874.58  1886.64  1891.01  1897.99
                             1912.75  1921.16  1924.05  1945.46  1946.25
                             1961.58  1967.04  1989.01  2006.67  2009.28
                             2017.51  2047.57  2058.34  2065.33  2085.59
                             2095.09  2095.57  2110.83  2117.15  4674.66
                             4682.15  4683.55  4687.56  4703.20  4708.08
                             4708.62  4710.11  4714.88  4726.19  4728.87
                             4745.44  4756.10  4765.66  4771.25  4835.04
                             4842.74  4843.94  4854.09  4855.13  5566.31
                             5573.67

 Zero-point correction=                           0.369846 (Hartree/Particle)
 Thermal correction to Energy=                    0.387732
 Thermal correction to Enthalpy=                  0.388676
 Thermal correction to Gibbs Free Energy=         0.324915
 Sum of electronic and zero-point Energies=          -1297.619413
 Sum of electronic and thermal Energies=             -1297.601527
 Sum of electronic and thermal Enthalpies=           -1297.600583
 Sum of electronic and thermal Free Energies=        -1297.664344

                     E (Thermal)             CV                S
                      KCal/Mol        Cal/Mol-Kelvin    Cal/Mol-Kelvin
 Total                  243.306             74.742            134.196
 Electronic               0.000              0.000              0.000
 Translational            0.889              2.981             43.384
 Rotational               0.889              2.981             35.106
 Vibrational            241.528             68.780             55.705
 Vibration     1          0.594              1.982              5.379
 Vibration     2          0.598              1.967              4.095
 Vibration     3          0.606              1.944              3.324
 Vibration     4          0.607              1.940              3.247
 Vibration     5          0.609              1.934              3.124
 Vibration     6          0.618              1.903              2.671
 Vibration     7          0.629              1.867              2.329
 Vibration     8          0.636              1.846              2.174
 Vibration     9          0.652              1.795              1.879
 Vibration    10          0.655              1.785              1.829
 Vibration    11          0.658              1.776              1.789
 Vibration    12          0.674              1.729              1.598
 Vibration    13          0.683              1.701              1.503
 Vibration    14          0.685              1.694              1.480
 Vibration    15          0.709              1.626              1.287
 Vibration    16          0.719              1.597              1.215
 Vibration    17          0.726              1.579              1.174
 Vibration    18          0.733              1.558              1.129
 Vibration    19          0.755              1.500              1.016
 Vibration    20          0.774              1.449              0.928
 Vibration    21          0.789              1.411              0.868
 Vibration    22          0.803              1.375              0.815
 Vibration    23          0.824              1.325              0.748
 Vibration    24          0.832              1.305              0.723
 Vibration    25          0.862              1.235              0.641
 Vibration    26          0.878              1.200              0.604
 Vibration    27          0.897              1.158              0.562
 Vibration    28          0.913              1.123              0.528
 Vibration    29          0.927              1.095              0.503
 Vibration    30          0.943              1.062              0.474
 Vibration    31          0.969              1.010              0.432
 Vibration    32          0.977              0.995              0.421

 Normal termination of Gaussian 09 at Tue Feb 16 13:16:52 2016.
