 Gaussian 09, Revision B.01,
 Gaussian 09:  EM64L-G09RevB.01 12-Aug-2010

 -------------------------------------------------
 # freq=raman b3lyp/6-31+g(2d,p) geom=connectivity
 -------------------------------------------------

 -----------------
 400 6736/6736.com
 -----------------
 Symbolic Z-matrix:
 Charge =  0 Multiplicity = 1

                         Standard orientation:
 ---------------------------------------------------------------------
 Center     Atomic      Atomic             Coordinates (Angstroms)
 Number     Number       Type             X           Y           Z
 ---------------------------------------------------------------------
      1          8           0       -4.967235   -0.246447    0.409404
      2          6           0       -3.661987   -0.016082   -0.139873
      3          6           0       -3.102045    1.242329    0.504035
      4          8           0       -4.040703    2.310592    0.312189
      5          1           0       -4.957129    1.927324    0.432480
      6          6           0       -1.727388    1.635415   -0.011252
      7          8           0       -1.010252    2.800277    0.422292
      8          1           0       -0.143457    2.903402   -0.066437
      9          6           0       -3.244939   -2.531090   -0.335348
     10          8           0       -4.349887   -3.092313    0.387835
     11          1           0       -4.346370   -4.092197    0.404929
     12          6           0       -2.715873   -1.178367    0.113342
     13          8           0       -1.527975   -0.724939   -0.551939
     14          6           0       -0.836215    0.403327    0.003383
     15          8           0        0.350636    0.481203   -0.798262
     16          6           0        1.588293    0.249604   -0.109620
     17          6           0        2.038345   -1.140135   -0.530329
     18          8           0        1.016519   -2.142511   -0.633086
     19          1           0        0.188211   -1.684477   -0.953564
     20          6           0        3.196858   -1.586423    0.347747
     21          8           0        3.520009   -2.963851    0.110498
     22          1           0        4.299057   -3.247704    0.669815
     23          6           0        2.435161    2.671456   -0.042839
     24          8           0        1.268751    3.410614   -0.432588
     25          1           0        1.298756    4.351679   -0.097360
     26          6           0        2.687297    1.234799   -0.470826
     27          8           0        3.840688    0.723033    0.213487
     28          6           0        4.318966   -0.616124    0.018060
     29          8           0        5.256748   -0.776442    1.093020
     30          1           0        6.150032   -0.774177    0.741397
     31          1           0        3.279041    3.239353   -0.374891
     32          1           0        2.454233    2.676974    1.026977
     33          1           0        2.858355    1.204084   -1.526617
     34          1           0        1.421010    0.268742    0.947049
     35          1           0        2.439238   -1.031693   -1.516446
     36          1           0        2.922522   -1.465613    1.374901
     37          1           0        4.752571   -0.776638   -0.946887
     38          1           0       -5.615140   -0.257274   -0.298905
     39          1           0       -2.435690   -3.229328   -0.285545
     40          1           0       -3.539275   -2.441267   -1.360139
     41          1           0       -2.516209   -1.228763    1.163339
     42          1           0       -3.749271    0.139937   -1.194832
     43          1           0       -3.018231    1.063024    1.555569
     44          1           0       -1.897745    1.825545   -1.050352
     45          1           0       -0.561744    0.183081    1.013857
 ---------------------------------------------------------------------

 SCF Done:  E(RB3LYP) =  -1297.96918785     A.U. after   13 cycles

 The electronic state is 1-A.
 Alpha  occ. eigenvalues --  -19.19668 -19.18097 -19.17921 -19.17869 -19.17386
 Alpha  occ. eigenvalues --  -19.16610 -19.16026 -19.15855 -19.14300 -19.13814
 Alpha  occ. eigenvalues --  -19.12286 -10.31047 -10.30054 -10.27045 -10.26091
 Alpha  occ. eigenvalues --  -10.25503 -10.25234 -10.24561 -10.24425 -10.24300
 Alpha  occ. eigenvalues --  -10.23927 -10.23773 -10.23480  -1.09670  -1.09057
 Alpha  occ. eigenvalues --   -1.06539  -1.05218  -1.03794  -1.03217  -1.02387
 Alpha  occ. eigenvalues --   -1.02197  -1.00977  -1.00027  -0.99118  -0.82223
 Alpha  occ. eigenvalues --   -0.80238  -0.79635  -0.78317  -0.72469  -0.70295
 Alpha  occ. eigenvalues --   -0.66809  -0.64265  -0.63381  -0.62273  -0.61729
 Alpha  occ. eigenvalues --   -0.60090  -0.56506  -0.56202  -0.55271  -0.54605
 Alpha  occ. eigenvalues --   -0.53761  -0.53415  -0.52765  -0.51777  -0.51156
 Alpha  occ. eigenvalues --   -0.50709  -0.49738  -0.49367  -0.48576  -0.46808
 Alpha  occ. eigenvalues --   -0.46674  -0.45191  -0.44519  -0.43752  -0.42954
 Alpha  occ. eigenvalues --   -0.42153  -0.41361  -0.41232  -0.39983  -0.39304
 Alpha  occ. eigenvalues --   -0.37900  -0.37379  -0.36962  -0.35779  -0.35303
 Alpha  occ. eigenvalues --   -0.35011  -0.34461  -0.33778  -0.33595  -0.33347
 Alpha  occ. eigenvalues --   -0.32777  -0.31566  -0.30821  -0.30263  -0.29365
 Alpha  occ. eigenvalues --   -0.28767  -0.28607  -0.27900  -0.26720  -0.26431
 Alpha  occ. eigenvalues --   -0.25574
 Alpha virt. eigenvalues --   -0.02329  -0.01649  -0.01612  -0.00150   0.00190
 Alpha virt. eigenvalues --    0.01057   0.01775   0.02249   0.02871   0.03679
 Alpha virt. eigenvalues --    0.04065   0.04253   0.04835   0.05388   0.05688

 Mulliken atomic charges:
              1
     1  O   -0.563637
     2  C   -0.141112
     3  C    0.510730
     4  O   -0.564941
     5  H    0.346196
     6  C   -0.408140
     7  O   -0.608135
     8  H    0.446024
     9  C   -0.264177
    10  O   -0.512993
    11  H    0.346045
    12  C    0.171589
    13  O   -0.279968
    14  C    0.431429
    15  O   -0.275458
    16  C    0.189538
    17  C    0.157844
    18  O   -0.560996
    19  H    0.378322
    20  C    0.023439
    21  O   -0.545581
    22  H    0.336032
    23  C   -0.315470
    24  O   -0.564573
    25  H    0.366597
    26  C   -0.025766
    27  O   -0.215188
    28  C    0.232934
    29  O   -0.519812
    30  H    0.325952
    31  H    0.149504
    32  H    0.160780
    33  H    0.123536
    34  H    0.110672
    35  H    0.093796
    36  H    0.123610
    37  H    0.138841
    38  H    0.342923
    39  H    0.150189
    40  H    0.138339
    41  H    0.113078
    42  H    0.122136
    43  H    0.112284
    44  H    0.116671
    45  H    0.106916
 Sum of Mulliken atomic charges =   0.00000

 Dipole moment (field-independent basis, Debye):
    X=              3.4555    Y=             -0.1231    Z=             -1.4320  Tot=              3.7425
 Quadrupole moment (field-independent basis, Debye-Ang):
   XX=           -111.0538   YY=           -135.4539   ZZ=           -140.4540
   XY=             17.2821   XZ=              5.3515   YZ=             -3.4877

  Exact polarizability: 232.015   0.227 200.120   2.329  -0.618 145.424
 Approx polarizability: 273.763   0.718 260.668   3.280  -2.413 241.023

 ******    7 imaginary frequencies (negative Signs) ******

                     1                      2                      3
                     A                      A                      A
 Frequencies --  -301.5407              -281.1543              -162.0516
 Red. masses --     1.7299                 1.7296                 1.3954
 Frc consts  --     0.0927                 0.0806                 0.0216
 IR Inten    --     4.3583                 6.8815                82.5294
 Raman Activ --     0.0239                 0.0673                 0.8023

                     4                      5                      6
                     A                      A                      A
 Frequencies --  -140.2639               -78.1295               -49.9473
 Red. masses --     1.1263                 6.6452                 6.3393
 Frc consts  --     0.0131                 0.0239                 0.0093
 IR Inten    --    90.6699                 2.0537                 0.6117
 Raman Activ --     0.9028                 0.0480                 0.1135

                     7                      8                      9
                     A                      A                      A
 Frequencies --   -19.9256                52.8610                75.0240
 Red. masses --     6.6413                 6.6507                 6.5706
 Frc consts  --     0.0016                 0.0109                 0.0218
 IR Inten    --     3.3503                 0.8078                 2.3690
 Raman Activ --     0.0404                 0.0789                 0.2535

                    10                     11                     12
                     A                      A                      A
 Frequencies --    82.7209                86.0382               120.4502
 Red. masses --     4.7547                 5.7188                 6.4460
 Frc consts  --     0.0192                 0.0249                 0.0551
 IR Inten    --    15.0275                 4.8024                 3.6055
 Raman Activ --     0.1399                 0.1828                 0.0417

                    13                     14                     15
                     A                      A                      A
 Frequencies --   155.8680               170.3377               186.7314
 Red. masses --     6.3388                 6.7956                 6.3388
 Frc consts  --     0.0907                 0.1162                 0.1302
 IR Inten    --     0.5912                 4.4441                 4.8421
 Raman Activ --     0.6785                 0.2455                 0.6775

                    16                     17                     18
                     A                      A                      A
 Frequencies --   224.0270               236.9167               260.7234
 Red. masses --     6.6075                 5.9256                 4.2085
 Frc consts  --     0.1954                 0.1960                 0.1686
 IR Inten    --     1.5210                 1.9674                20.0323
 Raman Activ --     3.3796                 0.4055                 0.2765

                    19                     20                     21
                     A                      A                      A
 Frequencies --   280.0052               290.5084               301.9037
 Red. masses --     5.1192                 5.0147                 6.5441
 Frc consts  --     0.2365                 0.2494                 0.3514
 IR Inten    --     2.4114                 3.2393                 8.0397
 Raman Activ --     0.1284                 0.2235                 6.2704

                    22                     23                     24
                     A                      A                      A
 Frequencies --   304.7752               324.5545               333.1408
 Red. masses --     6.2454                 4.5283                 4.3420
 Frc consts  --     0.3418                 0.2810                 0.2839
 IR Inten    --     0.2540                 5.9773                 0.7260
 Raman Activ --     2.0436                 0.8688                 1.0608

                    25                     26                     27
                     A                      A                      A
 Frequencies --   356.6669               372.7484               386.4165
 Red. masses --     5.9386                 6.4156                 6.4211
 Frc consts  --     0.4451                 0.5252                 0.5649
 IR Inten    --    11.2021                 1.0707                 7.4247
 Raman Activ --     2.0223                 2.0401                 0.4201

                    28                     29                     30
                     A                      A                      A
 Frequencies --   407.0205               421.4375               426.9045
 Red. masses --     5.0627                 4.0219                 5.7672
 Frc consts  --     0.4942                 0.4209                 0.6193
 IR Inten    --     9.9002                10.5807                 3.0670
 Raman Activ --     1.4191                 6.2620                 0.6723

                    31                     32                     33
                     A                      A                      A
 Frequencies --   433.0755               469.0095               496.3164
 Red. masses --     5.4864                 4.1181                 4.7161
 Frc consts  --     0.6063                 0.5337                 0.6845
 IR Inten    --     2.1161                 2.3012                 6.7114
 Raman Activ --     1.1742                 3.6802                 0.3515

                    34                     35                     36
                     A                      A                      A
 Frequencies --   507.1596               522.4861               557.5204
 Red. masses --     3.8902                 3.5080                 3.4607
 Frc consts  --     0.5895                 0.5642                 0.6338
 IR Inten    --    12.7300                11.9989                40.7014
 Raman Activ --     2.7402                 5.7428                 0.4910

                    37                     38                     39
                     A                      A                      A
 Frequencies --   578.8025               591.1228               607.8386
 Red. masses --     6.6764                 3.8772                 5.3349
 Frc consts  --     1.3178                 0.7982                 1.1613
 IR Inten    --     4.2322                11.3977                34.7840
 Raman Activ --     0.7603                 0.8535                 2.1913

                    40                     41                     42
                     A                      A                      A
 Frequencies --   626.1634               650.4801               686.6484
 Red. masses --     3.0233                 1.1498                 4.8249
 Frc consts  --     0.6984                 0.2866                 1.3403
 IR Inten    --    15.1659               115.1097                 2.8128
 Raman Activ --     0.1564                 1.8798                 0.3580

                    43                     44                     45
                     A                      A                      A
 Frequencies --   699.6503               730.8133               768.6884
 Red. masses --     1.1127                 1.0686                 1.0941
 Frc consts  --     0.3209                 0.3363                 0.3809
 IR Inten    --   127.9331               102.4962               127.1669
 Raman Activ --     1.9911                 2.0092                 3.2444

                    46                     47                     48
                     A                      A                      A
 Frequencies --   787.1192               826.8188               844.2716
 Red. masses --     1.0560                 1.1723                 1.7492
 Frc consts  --     0.3855                 0.4722                 0.7346
 IR Inten    --    84.0790                59.0968                 7.9797
 Raman Activ --     1.5393                 1.0815                 0.6535

                    49                     50                     51
                     A                      A                      A
 Frequencies --   874.6122               904.8048               931.0572
 Red. masses --     1.6025                 5.7188                 6.4933
 Frc consts  --     0.7222                 2.7585                 3.3164
 IR Inten    --    15.4345               177.6447                61.7063
 Raman Activ --     0.2714                 3.0132                 0.6848

                    52                     53                     54
                     A                      A                      A
 Frequencies --   969.1195               970.1444               988.1231
 Red. masses --     5.8678                 7.0539                 4.4639
 Frc consts  --     3.2470                 3.9116                 2.5680
 IR Inten    --   169.6704                81.5414               220.1064
 Raman Activ --     0.7847                 4.1447                 1.9746

                    55                     56                     57
                     A                      A                      A
 Frequencies --   994.2640              1003.9928              1018.0536
 Red. masses --     4.8888                 6.8571                 6.4155
 Frc consts  --     2.8474                 4.0724                 3.9176
 IR Inten    --   123.2610               135.0630               125.7928
 Raman Activ --     1.3766                 1.2642                 4.2952

                    58                     59                     60
                     A                      A                      A
 Frequencies --  1031.1191              1049.7720              1055.5991
 Red. masses --     5.4187                 4.6653                 4.2677
 Frc consts  --     3.3944                 3.0291                 2.8018
 IR Inten    --   245.8153               212.5396                27.1668
 Raman Activ --     3.8845                 0.7166                 5.1977

                    61                     62                     63
                     A                      A                      A
 Frequencies --  1063.4949              1070.3462              1073.6618
 Red. masses --     4.0530                 2.8100                 4.0952
 Frc consts  --     2.7008                 1.8967                 2.7814
 IR Inten    --     5.9979                18.5837                37.2598
 Raman Activ --     5.8887                18.6294                 4.7827

                    64                     65                     66
                     A                      A                      A
 Frequencies --  1079.4302              1092.9025              1110.9185
 Red. masses --     2.6297                 3.1905                 2.3925
 Frc consts  --     1.8053                 2.2453                 1.7397
 IR Inten    --    76.5739                41.6124                25.5342
 Raman Activ --     5.0057                15.1225                 3.8151

                    67                     68                     69
                     A                      A                      A
 Frequencies --  1114.6846              1126.1662              1136.6671
 Red. masses --     2.1855                 2.4569                 2.7966
 Frc consts  --     1.5999                 1.8359                 2.1289
 IR Inten    --    51.6599                 5.9003                61.8391
 Raman Activ --     1.5718                 5.0014                 2.9687

                    70                     71                     72
                     A                      A                      A
 Frequencies --  1141.4200              1147.8917              1161.5193
 Red. masses --     2.6526                 3.4459                 1.5016
 Frc consts  --     2.0362                 2.6752                 1.1936
 IR Inten    --    36.4663                86.5001                11.7876
 Raman Activ --     5.5023                 1.1957                 1.6387

                    73                     74                     75
                     A                      A                      A
 Frequencies --  1169.2630              1169.7583              1180.5890
 Red. masses --     2.0187                 2.2352                 2.2126
 Frc consts  --     1.6261                 1.8020                 1.8170
 IR Inten    --    10.0714                23.7633                11.5505
 Raman Activ --     0.7105                 5.1395                 4.3335

                    76                     77                     78
                     A                      A                      A
 Frequencies --  1201.1367              1207.9547              1223.9752
 Red. masses --     1.2922                 1.4546                 1.2223
 Frc consts  --     1.0984                 1.2505                 1.0789
 IR Inten    --    21.6995                11.5063                 9.7897
 Raman Activ --     3.3232                 2.8509                 1.8173

                    79                     80                     81
                     A                      A                      A
 Frequencies --  1239.4695              1250.7267              1257.7512
 Red. masses --     1.3102                 1.2566                 1.2631
 Frc consts  --     1.1859                 1.1582                 1.1773
 IR Inten    --     2.5148                 5.8371                28.5238
 Raman Activ --     1.9596                 0.7618                 2.7914

                    82                     83                     84
                     A                      A                      A
 Frequencies --  1274.3173              1276.5103              1290.6281
 Red. masses --     1.2166                 1.2201                 1.2800
 Frc consts  --     1.1640                 1.1714                 1.2562
 IR Inten    --     8.0459                15.9004                25.5851
 Raman Activ --     2.6411                 3.1434                 2.6958

                    85                     86                     87
                     A                      A                      A
 Frequencies --  1293.9779              1296.3997              1303.9223
 Red. masses --     1.3131                 1.1911                 1.2728
 Frc consts  --     1.2954                 1.1794                 1.2751
 IR Inten    --    25.5307                 4.6479                 5.1624
 Raman Activ --     4.5166                 0.5992                 6.1552

                    88                     89                     90
                     A                      A                      A
 Frequencies --  1311.7813              1320.6801              1324.3457
 Red. masses --     1.2689                 1.2126                 1.2644
 Frc consts  --     1.2865                 1.2461                 1.3065
 IR Inten    --    12.7866                38.1390                27.3580
 Raman Activ --     0.7656                 5.1581                 5.2793

                    91                     92                     93
                     A                      A                      A
 Frequencies --  1339.5657              1344.6595              1364.8789
 Red. masses --     1.2112                 1.2321                 1.1997
 Frc consts  --     1.2806                 1.3126                 1.3168
 IR Inten    --    42.2103                39.6857                 5.8469
 Raman Activ --     2.1087                 2.9763                 1.6455

                    94                     95                     96
                     A                      A                      A
 Frequencies --  1367.1632              1371.3973              1377.1111
 Red. masses --     1.3547                 1.4778                 1.1836
 Frc consts  --     1.4919                 1.6375                 1.3225
 IR Inten    --     7.0721                14.8861                23.5910
 Raman Activ --    17.2375                 4.1666                 2.7094

                    97                     98                     99
                     A                      A                      A
 Frequencies --  1379.3607              1387.2046              1400.7511
 Red. masses --     1.5331                 1.5191                 1.3598
 Frc consts  --     1.7186                 1.7223                 1.5720
 IR Inten    --     3.2764                 3.8867                 3.7675
 Raman Activ --     6.1629                 4.0929                 7.4208

                   100                    101                    102
                     A                      A                      A
 Frequencies --  1416.3718              1433.0197              1437.4039
 Red. masses --     1.4195                 1.3826                 1.4469
 Frc consts  --     1.6778                 1.6728                 1.7613
 IR Inten    --    23.5570                54.7258                16.7606
 Raman Activ --     1.9220                 0.8218                 1.5111

                   103                    104                    105
                     A                      A                      A
 Frequencies --  1458.7739              1469.4032              1476.3471
 Red. masses --     1.3942                 1.0862                 1.3846
 Frc consts  --     1.7480                 1.3818                 1.7781
 IR Inten    --    34.7101                 3.0383                42.3658
 Raman Activ --     0.9182                 3.9696                 1.9248

                   106                    107                    108
                     A                      A                      A
 Frequencies --  1477.2008              1485.9732              3180.6806
 Red. masses --     1.0860                 1.2513                 1.0709
 Frc consts  --     1.3963                 1.6279                 6.3829
 IR Inten    --     3.8290                69.1980              1452.2487
 Raman Activ --     4.6711                 3.5771               164.0035

                   109                    110                    111
                     A                      A                      A
 Frequencies --  3249.3601              3255.6516              3257.5066
 Red. masses --     1.0814                 1.0606                 1.0765
 Frc consts  --     6.7272                 6.6232                 6.7304
 IR Inten    --    48.2623                18.6183                29.7953
 Raman Activ --    47.4893                38.4856               175.8385

                   112                    113                    114
                     A                      A                      A
 Frequencies --  3263.6383              3267.0158              3274.4306
 Red. masses --     1.0589                 1.0828                 1.0838
 Frc consts  --     6.6453                 6.8093                 6.8463
 IR Inten    --     9.8899                 4.4668                10.9537
 Raman Activ --   126.5411                15.8707                74.0784

                   115                    116                    117
                     A                      A                      A
 Frequencies --  3275.6863              3280.7099              3285.5187
 Red. masses --     1.0825                 1.0859                 1.0848
 Frc consts  --     6.8434                 6.8859                 6.8991
 IR Inten    --    10.8262                 4.9868                 5.7693
 Raman Activ --    35.9831               104.6472                31.7765

                   118                    119                    120
                     A                      A                      A
 Frequencies --  3293.2889              3296.7589              3304.1543
 Red. masses --     1.0862                 1.0876                 1.0881
 Frc consts  --     6.9410                 6.9648                 6.9991
 IR Inten    --     6.7853                65.8416                61.4559
 Raman Activ --    82.0546                 7.5938                32.5066

                   121                    122                    123
                     A                      A                      A
 Frequencies --  3311.9045              3314.4709              3343.0185
 Red. masses --     1.1043                 1.1038                 1.0662
 Frc consts  --     7.1369                 7.1448                 7.0207
 IR Inten    --    45.6534                51.6201               362.3411
 Raman Activ --    30.5827                57.3405               133.4254

                   124                    125                    126
                     A                      A                      A
 Frequencies --  3352.6223              3368.6128              3369.2875
 Red. masses --     1.0646                 1.0692                 1.0663
 Frc consts  --     7.0503                 7.1481                 7.1318
 IR Inten    --    43.9613                53.5713                37.2272
 Raman Activ --    94.6625               166.9442               166.7197

                   127                    128                    129
                     A                      A                      A
 Frequencies --  3383.6418              3887.1607              3889.1010
 Red. masses --     1.0669                 1.0676                 1.0673
 Frc consts  --     7.1967                 9.5047                 9.5109
 IR Inten    --   102.0701                72.7456                60.4249
 Raman Activ --   125.3670                87.9615               149.3898

 - Thermochemistry -
 -------------------
 Temperature   298.150 Kelvin.  Pressure   1.00000 Atm.
 Atom     1 has atomic number  8 and mass  15.99491

 Molecular mass:   342.11621 amu.
 Principal axes and moments of inertia in atomic units:
                           1         2         3
     Eigenvalues --  4612.73510********************
           X            0.99996   0.00882   0.00087
           Y           -0.00882   0.99996   0.00028
           Z           -0.00086  -0.00028   1.00000
 This molecule is an asymmetric top.
 Rotational symmetry number  1.
 Warning -- assumption of classical behavior for rotation
           may cause significant error
 Rotational temperatures (Kelvin)      0.01878     0.00715     0.00538
 Rotational constants (GHZ):           0.39125     0.14903     0.11212
    7 imaginary frequencies ignored.
 Zero-point vibrational energy     972776.5 (Joules/Mol)
                                  232.49915 (Kcal/Mol)
 Warning -- explicit consideration of  32 degrees of freedom as
           vibrations may cause significant error
 Vibrational temperatures:     76.06   107.94   119.02   123.79   173.30
          (Kelvin)            224.26   245.08   268.66   322.32   340.87
                              375.12   402.86   417.98   434.37   438.50
                              466.96   479.31   513.16   536.30   555.97
                              585.61   606.35   614.22   623.10   674.80
                              714.09   729.69   751.74   802.15   832.77
                              850.49   874.54   900.91   935.89   987.93
                             1006.64  1051.48  1105.97  1132.49  1189.61
                             1214.72  1258.37  1301.81  1339.58  1394.35
                             1395.82  1421.69  1430.52  1444.52  1464.75
                             1483.55  1510.39  1518.77  1530.13  1539.99
                             1544.76  1553.06  1572.44  1598.36  1603.78
                             1620.30  1635.41  1642.25  1651.56  1671.17
                             1682.31  1683.02  1698.60  1728.17  1737.98
                             1761.03  1783.32  1799.51  1809.62  1833.46
                             1836.61  1856.92  1861.74  1865.23  1876.05
                             1887.36  1900.16  1905.44  1927.33  1934.66
                             1963.75  1967.04  1973.13  1981.35  1984.59
                             1995.88  2015.37  2037.84  2061.79  2068.10
                             2098.85  2114.14  2124.13  2125.36  2137.98
                             4576.28  4675.10  4684.15  4686.82  4695.64
                             4700.50  4711.17  4712.98  4720.20  4727.12
                             4738.30  4743.29  4753.94  4765.09  4768.78
                             4809.85  4823.67  4846.68  4847.65  4868.30
                             5592.75  5595.54

 Zero-point correction=                           0.370511 (Hartree/Particle)
 Thermal correction to Energy=                    0.388797
 Thermal correction to Enthalpy=                  0.389741
 Thermal correction to Gibbs Free Energy=         0.325293
 Sum of electronic and zero-point Energies=          -1297.598677
 Sum of electronic and thermal Energies=             -1297.580391
 Sum of electronic and thermal Enthalpies=           -1297.579447
 Sum of electronic and thermal Free Energies=        -1297.643895

                     E (Thermal)             CV                S
                      KCal/Mol        Cal/Mol-Kelvin    Cal/Mol-Kelvin
 Total                  243.974             76.133            135.643
 Electronic               0.000              0.000              0.000
 Translational            0.889              2.981             43.384
 Rotational               0.889              2.981             35.152
 Vibrational            242.196             70.172             57.107
 Vibration     1          0.596              1.976              4.707
 Vibration     2          0.599              1.966              4.017
 Vibration     3          0.600              1.961              3.825
 Vibration     4          0.601              1.959              3.748
 Vibration     5          0.609              1.932              3.093
 Vibration     6          0.620              1.896              2.599
 Vibration     7          0.625              1.879              2.432
 Vibration     8          0.632              1.858              2.260
 Vibration     9          0.649              1.804              1.926
 Vibration    10          0.656              1.784              1.826
 Vibration    11          0.669              1.745              1.657
 Vibration    12          0.680              1.711              1.534
 Vibration    13          0.686              1.691              1.471
 Vibration    14          0.694              1.670              1.406
 Vibration    15          0.696              1.665              1.391
 Vibration    16          0.709              1.626              1.287
 Vibration    17          0.715              1.609              1.245
 Vibration    18          0.732              1.562              1.137
 Vibration    19          0.744              1.528              1.068
 Vibration    20          0.755              1.499              1.014
 Vibration    21          0.772              1.455              0.937
 Vibration    22          0.784              1.424              0.887
 Vibration    23          0.789              1.412              0.869
 Vibration    24          0.794              1.398              0.849
 Vibration    25          0.826              1.319              0.740
 Vibration    26          0.852              1.258              0.667
 Vibration    27          0.862              1.234              0.640
 Vibration    28          0.877              1.200              0.604
 Vibration    29          0.913              1.123              0.529
 Vibration    30          0.935              1.077              0.488
 Vibration    31          0.949              1.051              0.465
 Vibration    32          0.967              1.015              0.436

 Normal termination of Gaussian 09 at Sat Mar 26 10:06:18 2016.
