 Gaussian 09, Revision B.01,
 Gaussian 09:  EM64L-G09RevB.01 12-Aug-2010

 ------------------------------------------------
 # freq=raman b3lyp/6-31+g(d,p) geom=connectivity
 ------------------------------------------------

 ------------
 300 6000.com
 ------------
 Symbolic Z-matrix:
 Charge =  0 Multiplicity = 1

                         Standard orientation:
 ---------------------------------------------------------------------
 Center     Atomic      Atomic             Coordinates (Angstroms)
 Number     Number       Type             X           Y           Z
 ---------------------------------------------------------------------
      1          8           0       -5.093706   -0.366347    0.174160
      2          6           0       -3.751781   -0.139666   -0.280522
      3          6           0       -3.310300    1.241499    0.173818
      4          8           0       -4.217238    2.248907   -0.296589
      5          1           0       -5.132538    1.847037   -0.270353
      6          6           0       -1.854221    1.571348   -0.110856
      7          8           0       -1.423038    2.662566    0.715213
      8          1           0       -0.556223    3.122553    0.521996
      9          6           0       -2.884932   -2.625252   -0.046973
     10          8           0       -4.202896   -3.189199   -0.001370
     11          1           0       -4.135289   -4.143550   -0.291520
     12          6           0       -2.803812   -1.156348    0.335097
     13          8           0       -1.393230   -0.937269    0.188231
     14          6           0       -0.941107    0.421135    0.282107
     15          8           0        0.247436    0.558501   -0.509469
     16          6           0        1.527194    0.219591    0.042772
     17          6           0        1.987292   -1.173657   -0.356175
     18          8           0        1.063127   -2.181107    0.078963
     19          1           0        0.178162   -1.715321    0.055303
     20          6           0        3.387938   -1.568226    0.083815
     21          8           0        4.010447   -2.667447   -0.595018
     22          1           0        4.781267   -3.004183   -0.054209
     23          6           0        2.428860    2.698745   -0.232388
     24          8           0        1.198387    3.421885   -0.387640
     25          1           0        1.324282    4.366395   -0.083489
     26          6           0        2.626324    1.195843   -0.343445
     27          8           0        3.848193    0.912389    0.352307
     28          6           0        4.323372   -0.378053   -0.056661
     29          8           0        5.426302   -0.654910    0.818052
     30          1           0        6.226633   -0.763985    0.299232
     31          1           0       -5.685743   -0.401330   -0.580737
     32          1           0       -2.257674   -3.181224    0.618116
     33          1           0       -2.505648   -2.735892   -1.041358
     34          1           0       -2.998918   -1.118111    1.386464
     35          1           0       -3.712123   -0.202844   -1.347919
     36          1           0       -3.403087    1.240062    1.239787
     37          1           0       -1.722421    1.813731   -1.144674
     38          1           0       -0.661993    0.583021    1.302298
     39          1           0        2.786213    2.957964    0.742294
     40          1           0        3.097499    3.124018   -0.951390
     41          1           0        2.823374    1.007056   -1.378061
     42          1           0        1.434804    0.239022    1.108598
     43          1           0        1.986490   -1.197772   -1.425902
     44          1           0        3.337496   -1.820031    1.122540
     45          1           0        4.676187   -0.322136   -1.065272
 ---------------------------------------------------------------------

 SCF Done:  E(RB3LYP) =  -1297.92719279     A.U. after   14 cycles

 The electronic state is 1-A.
 Alpha  occ. eigenvalues --  -19.19689 -19.19242 -19.19193 -19.18829 -19.18547
 Alpha  occ. eigenvalues --  -19.18266 -19.17435 -19.16729 -19.16164 -19.15048
 Alpha  occ. eigenvalues --  -19.14298 -10.30828 -10.30532 -10.26763 -10.26454
 Alpha  occ. eigenvalues --  -10.26217 -10.26171 -10.25687 -10.25555 -10.25122
 Alpha  occ. eigenvalues --  -10.24741 -10.24427 -10.24158  -1.09905  -1.09227
 Alpha  occ. eigenvalues --   -1.06009  -1.04945  -1.04284  -1.03856  -1.02676
 Alpha  occ. eigenvalues --   -1.02411  -1.02201  -1.00857  -1.00432  -0.82316
 Alpha  occ. eigenvalues --   -0.80996  -0.79159  -0.78513  -0.72409  -0.70480
 Alpha  occ. eigenvalues --   -0.67710  -0.65144  -0.63205  -0.63002  -0.61144
 Alpha  occ. eigenvalues --   -0.59911  -0.56318  -0.55890  -0.55388  -0.54992
 Alpha  occ. eigenvalues --   -0.54446  -0.53386  -0.52785  -0.51920  -0.51386
 Alpha  occ. eigenvalues --   -0.50776  -0.50158  -0.49713  -0.49032  -0.46857
 Alpha  occ. eigenvalues --   -0.46159  -0.44998  -0.44304  -0.43792  -0.42942
 Alpha  occ. eigenvalues --   -0.42918  -0.42249  -0.41717  -0.40213  -0.39526
 Alpha  occ. eigenvalues --   -0.38731  -0.37789  -0.36744  -0.36410  -0.36062
 Alpha  occ. eigenvalues --   -0.35239  -0.34822  -0.34672  -0.33746  -0.33040
 Alpha  occ. eigenvalues --   -0.32429  -0.31343  -0.30837  -0.30513  -0.29750
 Alpha  occ. eigenvalues --   -0.29355  -0.28699  -0.28604  -0.28265  -0.27268
 Alpha  occ. eigenvalues --   -0.26199
 Alpha virt. eigenvalues --   -0.02523  -0.01966  -0.01615  -0.00421   0.00297
 Alpha virt. eigenvalues --    0.01350   0.01820   0.02370   0.02984   0.03550
 Alpha virt. eigenvalues --    0.03963   0.04308   0.04659   0.05290   0.06006

 Mulliken atomic charges:
              1
     1  O   -0.530473
     2  C   -0.123456
     3  C    0.068364
     4  O   -0.516669
     5  H    0.344988
     6  C    0.296859
     7  O   -0.557535
     8  H    0.409723
     9  C    0.047246
    10  O   -0.547527
    11  H    0.355998
    12  C    0.039824
    13  O   -0.433668
    14  C    0.050912
    15  O   -0.287034
    16  C   -0.403035
    17  C    0.173728
    18  O   -0.544577
    19  H    0.443932
    20  C    0.105964
    21  O   -0.512619
    22  H    0.359334
    23  C   -0.088149
    24  O   -0.600754
    25  H    0.371769
    26  C    0.122911
    27  O   -0.300882
    28  C    0.114015
    29  O   -0.575083
    30  H    0.364410
    31  H    0.368853
    32  H    0.148363
    33  H    0.139853
    34  H    0.137988
    35  H    0.138036
    36  H    0.142037
    37  H    0.157614
    38  H    0.135786
    39  H    0.144078
    40  H    0.139437
    41  H    0.127147
    42  H    0.137862
    43  H    0.139541
    44  H    0.159822
    45  H    0.135063
 Sum of Mulliken atomic charges =   0.00000

 Dipole moment (field-independent basis, Debye):
    X=              2.2209    Y=              0.3179    Z=             -2.2732  Tot=              3.1939
 Quadrupole moment (field-independent basis, Debye-Ang):
   XX=           -118.9084   YY=           -133.6745   ZZ=           -140.9285
   XY=             13.8704   XZ=              4.4414   YZ=              0.1822

  Exact polarizability: 228.526  -3.125 193.704   1.193   0.609 141.173
 Approx polarizability: 265.441  -3.536 248.594   1.062   1.195 228.964

 ******    8 imaginary frequencies (negative Signs) ******

                     1                      2                      3
                     A                      A                      A
 Frequencies --  -347.3998              -297.9335              -283.6793
 Red. masses --     1.7257                 1.1948                 1.1659
 Frc consts  --     0.1227                 0.0625                 0.0553
 IR Inten    --     3.0053               114.5218               134.7131
 Raman Activ --     0.0651                 0.8225                 1.3786

                     4                      5                      6
                     A                      A                      A
 Frequencies --  -240.4391               -96.2181               -83.5089
 Red. masses --     1.8483                 7.3933                 6.9265
 Frc consts  --     0.0630                 0.0403                 0.0285
 IR Inten    --     6.2877                 0.2668                 1.3039
 Raman Activ --     0.2025                 0.0150                 0.0055

                     7                      8                      9
                     A                      A                      A
 Frequencies --   -52.6919               -38.9498                48.6060
 Red. masses --     6.6559                 5.8826                 5.9986
 Frc consts  --     0.0109                 0.0053                 0.0083
 IR Inten    --     0.7050                 0.6557                 2.0705
 Raman Activ --     0.0550                 0.0944                 0.0873

                    10                     11                     12
                     A                      A                      A
 Frequencies --    58.2894                72.0786               104.1909
 Red. masses --     6.5200                 6.4987                 6.2001
 Frc consts  --     0.0131                 0.0199                 0.0397
 IR Inten    --     1.6790                 2.6825                 2.2074
 Raman Activ --     0.0707                 0.2223                 0.0382

                    13                     14                     15
                     A                      A                      A
 Frequencies --   137.4172               157.9520               169.7136
 Red. masses --     5.9166                 6.5017                 7.2851
 Frc consts  --     0.0658                 0.0956                 0.1236
 IR Inten    --     3.5377                 2.8723                 0.1308
 Raman Activ --     0.3727                 0.2144                 0.6294

                    16                     17                     18
                     A                      A                      A
 Frequencies --   182.1240               218.7086               246.5834
 Red. masses --     6.3533                 6.1361                 4.3431
 Frc consts  --     0.1242                 0.1729                 0.1556
 IR Inten    --     0.1103                 3.0171                10.6933
 Raman Activ --     1.7738                 0.7434                 0.4928

                    19                     20                     21
                     A                      A                      A
 Frequencies --   275.0416               296.5225               301.1731
 Red. masses --     5.1881                 6.0914                 5.0021
 Frc consts  --     0.2312                 0.3156                 0.2673
 IR Inten    --     2.7360                 4.4765                 2.5817
 Raman Activ --     0.2849                 1.4964                 1.1905

                    22                     23                     24
                     A                      A                      A
 Frequencies --   307.0888               319.3175               330.3007
 Red. masses --     5.7840                 5.3282                 6.2726
 Frc consts  --     0.3214                 0.3201                 0.4032
 IR Inten    --     2.2371                 3.2824                 8.8150
 Raman Activ --     0.1304                 0.8627                 4.2824

                    25                     26                     27
                     A                      A                      A
 Frequencies --   335.7184               365.9716               382.6134
 Red. masses --     6.2910                 4.7388                 6.2354
 Frc consts  --     0.4178                 0.3739                 0.5378
 IR Inten    --     1.6335                 9.9167                 1.8403
 Raman Activ --     2.5170                 0.7165                 1.5680

                    28                     29                     30
                     A                      A                      A
 Frequencies --   399.5379               410.8104               434.3429
 Red. masses --     4.7343                 5.7929                 5.3845
 Frc consts  --     0.4453                 0.5760                 0.5985
 IR Inten    --     9.8534                 9.4965                 2.4259
 Raman Activ --     2.9080                 4.0693                 0.9103

                    31                     32                     33
                     A                      A                      A
 Frequencies --   440.2730               476.6118               485.1358
 Red. masses --     5.5836                 4.4765                 4.7478
 Frc consts  --     0.6377                 0.5991                 0.6584
 IR Inten    --     2.1065                 4.2772                 9.3652
 Raman Activ --     2.0397                 3.9235                 2.3862

                    34                     35                     36
                     A                      A                      A
 Frequencies --   513.2231               527.1816               567.5340
 Red. masses --     3.4433                 3.4712                 3.5043
 Frc consts  --     0.5344                 0.5684                 0.6650
 IR Inten    --    16.3217                 9.7489                 9.6737
 Raman Activ --     4.3880                 3.8758                 1.5550

                    37                     38                     39
                     A                      A                      A
 Frequencies --   585.8464               598.0836               607.1942
 Red. masses --     2.7205                 5.4406                 6.9788
 Frc consts  --     0.5501                 1.1466                 1.5160
 IR Inten    --    31.7015                10.0303                29.9927
 Raman Activ --     0.3404                 1.1096                 0.6911

                    40                     41                     42
                     A                      A                      A
 Frequencies --   641.0627               665.8028               702.9620
 Red. masses --     4.3050                 4.7565                 1.0669
 Frc consts  --     1.0424                 1.2423                 0.3106
 IR Inten    --    46.4283                 8.3540                55.8617
 Raman Activ --     1.2121                 0.9311                 1.8166

                    43                     44                     45
                     A                      A                      A
 Frequencies --   706.3065               706.7393               722.7252
 Red. masses --     1.0866                 1.0732                 1.0640
 Frc consts  --     0.3194                 0.3158                 0.3274
 IR Inten    --    20.4416               216.0506               100.3502
 Raman Activ --     2.6614                 0.6718                 1.6132

                    46                     47                     48
                     A                      A                      A
 Frequencies --   729.9562               781.6760               861.1077
 Red. masses --     1.0862                 1.0800                 1.7635
 Frc consts  --     0.3410                 0.3888                 0.7705
 IR Inten    --   107.1400                58.1669                11.1995
 Raman Activ --     0.8533                 0.4622                 2.0530

                    49                     50                     51
                     A                      A                      A
 Frequencies --   876.5160               928.3703               960.1990
 Red. masses --     1.9122                 5.6410                 4.6089
 Frc consts  --     0.8656                 2.8645                 2.5036
 IR Inten    --     8.3591                50.9461                23.2046
 Raman Activ --     1.8757                 1.6654                 0.5817

                    52                     53                     54
                     A                      A                      A
 Frequencies --   983.9935               986.7718              1001.1504
 Red. masses --     7.0509                 4.9901                 6.6980
 Frc consts  --     4.0223                 2.8628                 3.9554
 IR Inten    --    51.2364               144.1884                40.8161
 Raman Activ --     2.6700                 1.9722                 1.7038

                    55                     56                     57
                     A                      A                      A
 Frequencies --  1005.6293              1011.3637              1019.2391
 Red. masses --     5.4213                 4.2719                 4.8556
 Frc consts  --     3.2302                 2.5745                 2.9720
 IR Inten    --   183.7189               467.3310               104.5383
 Raman Activ --     2.3609                 1.3713                 3.9840

                    58                     59                     60
                     A                      A                      A
 Frequencies --  1046.4060              1051.8570              1059.3670
 Red. masses --     2.7520                 4.7452                 5.4688
 Frc consts  --     1.7754                 3.0932                 3.6160
 IR Inten    --   151.6312               112.5685                 3.4608
 Raman Activ --     3.2348                 8.8633                 2.1636

                    61                     62                     63
                     A                      A                      A
 Frequencies --  1072.1162              1074.6269              1086.7666
 Red. masses --     5.1501                 5.6551                 4.2380
 Frc consts  --     3.4878                 3.8478                 2.9490
 IR Inten    --   220.4739                57.9108                62.1646
 Raman Activ --     2.6167                 2.2959                10.7898

                    64                     65                     66
                     A                      A                      A
 Frequencies --  1103.9361              1115.0147              1122.8860
 Red. masses --     3.2352                 2.6721                 3.0125
 Frc consts  --     2.3229                 1.9573                 2.2379
 IR Inten    --    19.2198                 5.2509                57.4556
 Raman Activ --    11.0659                 8.7095                 1.6414

                    67                     68                     69
                     A                      A                      A
 Frequencies --  1130.1964              1135.7808              1136.3636
 Red. masses --     2.1593                 2.5197                 2.1176
 Frc consts  --     1.6250                 1.9150                 1.6111
 IR Inten    --    22.8691                43.2041                19.9901
 Raman Activ --     4.1535                 2.1082                 4.6971

                    70                     71                     72
                     A                      A                      A
 Frequencies --  1145.7524              1165.6595              1167.6882
 Red. masses --     1.8896                 1.7799                 2.0982
 Frc consts  --     1.4615                 1.4249                 1.6856
 IR Inten    --    37.2067                21.3486                32.0881
 Raman Activ --     8.7215                 2.9512                 2.2742

                    73                     74                     75
                     A                      A                      A
 Frequencies --  1172.9884              1189.6332              1201.7016
 Red. masses --     2.9173                 1.5788                 1.3506
 Frc consts  --     2.3649                 1.3164                 1.1491
 IR Inten    --    20.9232                12.6732                 5.0601
 Raman Activ --     5.2278                 1.3002                 1.3186

                    76                     77                     78
                     A                      A                      A
 Frequencies --  1206.8673              1231.4301              1240.7824
 Red. masses --     1.6413                 1.6795                 1.3913
 Frc consts  --     1.4085                 1.5005                 1.2620
 IR Inten    --    28.4324                12.9577                 4.0793
 Raman Activ --     3.5934                 1.5548                 1.5380

                    79                     80                     81
                     A                      A                      A
 Frequencies --  1247.9916              1259.6015              1271.7899
 Red. masses --     1.2651                 1.3149                 1.2866
 Frc consts  --     1.1609                 1.2292                 1.2261
 IR Inten    --    45.3292                32.0199                 3.4814
 Raman Activ --     2.8649                 2.2985                 1.8843

                    82                     83                     84
                     A                      A                      A
 Frequencies --  1273.3986              1288.9058              1289.9730
 Red. masses --     1.2565                 1.2666                 1.2349
 Frc consts  --     1.2005                 1.2397                 1.2108
 IR Inten    --    12.2893                 2.0932                67.9861
 Raman Activ --     0.7931                 1.1081                 1.9992

                    85                     86                     87
                     A                      A                      A
 Frequencies --  1307.2923              1316.9464              1322.6666
 Red. masses --     1.2926                 1.1971                 1.2156
 Frc consts  --     1.3015                 1.2233                 1.2530
 IR Inten    --    20.3444                18.0028                 5.4170
 Raman Activ --     7.3731                 3.9697                 6.7257

                    88                     89                     90
                     A                      A                      A
 Frequencies --  1324.6127              1336.2571              1340.3848
 Red. masses --     1.2177                 1.2798                 1.2498
 Frc consts  --     1.2589                 1.3464                 1.3230
 IR Inten    --    41.3423                22.8364                32.4424
 Raman Activ --     3.1242                11.0681                 3.8933

                    91                     92                     93
                     A                      A                      A
 Frequencies --  1342.0967              1352.7993              1353.4871
 Red. masses --     1.3272                 1.1804                 1.2036
 Frc consts  --     1.4085                 1.2728                 1.2990
 IR Inten    --    13.1742                28.2729                 6.6523
 Raman Activ --     6.0405                 0.9479                 3.4835

                    94                     95                     96
                     A                      A                      A
 Frequencies --  1366.2120              1369.8383              1372.9394
 Red. masses --     1.3428                 1.4083                 1.2369
 Frc consts  --     1.4767                 1.5570                 1.3737
 IR Inten    --    12.3825                 8.2487                23.9076
 Raman Activ --     1.9576                 5.6360                 1.8352

                    97                     98                     99
                     A                      A                      A
 Frequencies --  1377.8820              1395.7783              1413.9713
 Red. masses --     1.4687                 1.4509                 1.4868
 Frc consts  --     1.6429                 1.6654                 1.7514
 IR Inten    --    15.1287                 3.5272                18.9543
 Raman Activ --     4.8691                 9.1966                 8.0450

                   100                    101                    102
                     A                      A                      A
 Frequencies --  1417.0322              1423.5081              1440.2168
 Red. masses --     1.5003                 1.4627                 1.5987
 Frc consts  --     1.7750                 1.7463                 1.9538
 IR Inten    --     6.2693                25.3323                45.8411
 Raman Activ --     4.9739                 1.0747                 1.1141

                   103                    104                    105
                     A                      A                      A
 Frequencies --  1463.8648              1472.2837              1480.4094
 Red. masses --     1.4694                 1.2210                 1.1716
 Frc consts  --     1.8552                 1.5593                 1.5129
 IR Inten    --    10.4057                11.0563                 2.0975
 Raman Activ --     1.3941                 3.7243                 2.7742

                   106                    107                    108
                     A                      A                      A
 Frequencies --  1486.2496              1527.2925              3260.8017
 Red. masses --     1.0940                 1.2408                 1.0719
 Frc consts  --     1.4238                 1.7052                 6.7148
 IR Inten    --     0.9169                71.5877                36.6243
 Raman Activ --     4.7822                 1.8780                22.3060

                   109                    110                    111
                     A                      A                      A
 Frequencies --  3266.5974              3269.7738              3277.8870
 Red. masses --     1.0695                 1.0571                 1.0807
 Frc consts  --     6.7238                 6.6587                 6.8415
 IR Inten    --    22.0085                28.4593                39.1771
 Raman Activ --    84.6656                90.8162               110.6180

                   112                    113                    114
                     A                      A                      A
 Frequencies --  3280.8439              3284.7444              3295.0495
 Red. masses --     1.0828                 1.0820                 1.0858
 Frc consts  --     6.8670                 6.8780                 6.9460
 IR Inten    --    21.4482                 6.9342                 2.3098
 Raman Activ --    18.9076               161.1031                74.1931

                   115                    116                    117
                     A                      A                      A
 Frequencies --  3295.1755              3297.0822              3304.7540
 Red. masses --     1.0851                 1.0842                 1.0869
 Frc consts  --     6.9421                 6.9444                 6.9936
 IR Inten    --    20.3685                19.5435                27.0495
 Raman Activ --    74.9392                42.5985                 9.3192

                   118                    119                    120
                     A                      A                      A
 Frequencies --  3311.2300              3319.0999              3321.4387
 Red. masses --     1.0868                 1.0864                 1.1055
 Frc consts  --     7.0207                 7.0513                 7.1857
 IR Inten    --    61.3361                27.3670                55.9223
 Raman Activ --     9.5738                34.0559                71.6107

                   121                    122                    123
                     A                      A                      A
 Frequencies --  3328.5784              3329.8671              3349.7090
 Red. masses --     1.0788                 1.0966                 1.0694
 Frc consts  --     7.0420                 7.1638                 7.0697
 IR Inten    --   327.9212               175.8753               563.1488
 Raman Activ --   149.6153               120.2840               183.9637

                   124                    125                    126
                     A                      A                      A
 Frequencies --  3383.8688              3385.8203              3391.2762
 Red. masses --     1.0651                 1.0669                 1.0669
 Frc consts  --     7.1855                 7.2062                 7.2291
 IR Inten    --    33.6920                61.8540                34.8010
 Raman Activ --   103.4595               114.0485               171.6855

                   127                    128                    129
                     A                      A                      A
 Frequencies --  3394.9904              3919.2845              3919.4990
 Red. masses --     1.0668                 1.0676                 1.0678
 Frc consts  --     7.2443                 9.6623                 9.6650
 IR Inten    --    48.8422                89.3700                52.6472
 Raman Activ --   144.4478                79.9730               128.6033

 - Thermochemistry -
 -------------------
 Temperature   298.150 Kelvin.  Pressure   1.00000 Atm.
 Atom     1 has atomic number  8 and mass  15.99491

 Molecular mass:   342.11621 amu.
 Principal axes and moments of inertia in atomic units:
                           1         2         3
     Eigenvalues --  4470.80318********************
           X            0.99997   0.00707  -0.00035
           Y           -0.00707   0.99997  -0.00002
           Z            0.00035   0.00002   1.00000
 This molecule is an asymmetric top.
 Rotational symmetry number  1.
 Warning -- assumption of classical behavior for rotation
           may cause significant error
 Rotational temperatures (Kelvin)      0.01937     0.00691     0.00523
 Rotational constants (GHZ):           0.40367     0.14406     0.10906
    8 imaginary frequencies ignored.
 Zero-point vibrational energy     976916.2 (Joules/Mol)
                                  233.48857 (Kcal/Mol)
 Warning -- explicit consideration of  31 degrees of freedom as
           vibrations may cause significant error
 Vibrational temperatures:     69.93    83.87   103.70   149.91   197.71
          (Kelvin)            227.26   244.18   262.04   314.67   354.78
                              395.72   426.63   433.32   441.83   459.43
                              475.23   483.02   526.55   550.49   574.85
                              591.06   624.92   633.45   685.74   698.00
                              738.41   758.50   816.55   842.90   860.51
                              873.62   922.35   957.94  1011.40  1016.22
                             1016.84  1039.84  1050.24  1124.66  1238.94
                             1261.11  1335.72  1381.51  1415.75  1419.74
                             1440.43  1446.87  1455.13  1466.46  1505.54
                             1513.39  1524.19  1542.53  1546.15  1563.61
                             1588.32  1604.26  1615.58  1626.10  1634.13
                             1634.97  1648.48  1677.12  1680.04  1687.67
                             1711.61  1728.98  1736.41  1771.75  1785.21
                             1795.58  1812.28  1829.82  1832.13  1854.45
                             1855.98  1880.90  1894.79  1903.02  1905.82
                             1922.57  1928.51  1930.98  1946.37  1947.36
                             1965.67  1970.89  1975.35  1982.46  2008.21
                             2034.39  2038.79  2048.11  2072.15  2106.17
                             2118.29  2129.98  2138.38  2197.43  4691.56
                             4699.90  4704.47  4716.14  4720.40  4726.01
                             4740.84  4741.02  4743.76  4754.80  4764.12
                             4775.44  4778.80  4789.08  4790.93  4819.48
                             4868.63  4871.43  4879.28  4884.63  5638.97
                             5639.28

 Zero-point correction=                           0.372088 (Hartree/Particle)
 Thermal correction to Energy=                    0.389905
 Thermal correction to Enthalpy=                  0.390850
 Thermal correction to Gibbs Free Energy=         0.326993
 Sum of electronic and zero-point Energies=          -1297.555105
 Sum of electronic and thermal Energies=             -1297.537287
 Sum of electronic and thermal Enthalpies=           -1297.536343
 Sum of electronic and thermal Free Energies=        -1297.600200

                     E (Thermal)             CV                S
                      KCal/Mol        Cal/Mol-Kelvin    Cal/Mol-Kelvin
 Total                  244.669             74.136            134.398
 Electronic               0.000              0.000              0.000
 Translational            0.889              2.981             43.384
 Rotational               0.889              2.981             35.182
 Vibrational            242.892             68.175             55.832
 Vibration     1          0.595              1.978              4.873
 Vibration     2          0.596              1.974              4.514
 Vibration     3          0.598              1.967              4.096
 Vibration     4          0.605              1.946              3.374
 Vibration     5          0.614              1.916              2.840
 Vibration     6          0.621              1.894              2.574
 Vibration     7          0.625              1.880              2.439
 Vibration     8          0.630              1.864              2.307
 Vibration     9          0.646              1.813              1.970
 Vibration    10          0.661              1.768              1.755
 Vibration    11          0.677              1.719              1.564
 Vibration    12          0.690              1.680              1.436
 Vibration    13          0.693              1.671              1.410
 Vibration    14          0.697              1.660              1.378
 Vibration    15          0.705              1.637              1.314
 Vibration    16          0.713              1.615              1.259
 Vibration    17          0.717              1.604              1.232
 Vibration    18          0.739              1.542              1.097
 Vibration    19          0.752              1.507              1.029
 Vibration    20          0.766              1.471              0.964
 Vibration    21          0.775              1.447              0.924
 Vibration    22          0.795              1.395              0.845
 Vibration    23          0.800              1.382              0.826
 Vibration    24          0.833              1.302              0.719
 Vibration    25          0.841              1.283              0.696
 Vibration    26          0.868              1.221              0.626
 Vibration    27          0.882              1.190              0.594
 Vibration    28          0.923              1.101              0.509
 Vibration    29          0.943              1.062              0.475
 Vibration    30          0.956              1.036              0.453
 Vibration    31          0.966              1.017              0.437

 Normal termination of Gaussian 09 at Tue Mar  1 03:13:45 2016.
