 Gaussian 09, Revision B.01,
 Gaussian 09:  EM64L-G09RevB.01 12-Aug-2010

 ------------------------------------------------
 # freq=raman b3lyp/6-31+g(d,p) geom=connectivity
 ------------------------------------------------

 ------------
 350 8000.com
 ------------
 Symbolic Z-matrix:
 Charge =  0 Multiplicity = 1

                         Standard orientation:
 ---------------------------------------------------------------------
 Center     Atomic      Atomic             Coordinates (Angstroms)
 Number     Number       Type             X           Y           Z
 ---------------------------------------------------------------------
      1          8           0        5.020064   -0.390647   -0.269180
      2          6           0        3.730703   -0.103214    0.291014
      3          6           0        3.217452    1.261554   -0.135868
      4          8           0        4.209629    2.294002   -0.048261
      5          1           0        5.107934    1.872831   -0.165636
      6          6           0        1.805655    1.640214    0.281228
      7          8           0        1.224787    2.702597   -0.489413
      8          1           0        0.288047    2.925363   -0.218236
      9          6           0        3.021131   -2.631020    0.133887
     10          8           0        4.206787   -3.239934   -0.397521
     11          1           0        4.130172   -4.220888   -0.220250
     12          6           0        2.780389   -1.172819   -0.222317
     13          8           0        1.478252   -0.788788    0.241641
     14          6           0        0.905718    0.479317   -0.110489
     15          8           0       -0.296380    0.516067    0.672942
     16          6           0       -1.486696    0.185679   -0.057855
     17          6           0       -2.044220   -1.122291    0.479850
     18          8           0       -1.183739   -2.166733    0.002549
     19          1           0       -0.223208   -1.893148    0.065851
     20          6           0       -3.376136   -1.533264   -0.125290
     21          8           0       -3.850090   -2.733439    0.503702
     22          1           0       -4.680257   -3.125280    0.107855
     23          6           0       -2.204598    2.635787   -0.167921
     24          8           0       -1.122395    3.324322    0.475258
     25          1           0       -1.340841    4.300263    0.450566
     26          6           0       -2.576306    1.210440    0.208821
     27          8           0       -3.855556    0.891501   -0.356194
     28          6           0       -4.370924   -0.393416    0.023757
     29          8           0       -5.491829   -0.593548   -0.848590
     30          1           0       -6.265387   -0.822575   -0.328250
     31          1           0        5.628860   -0.627926    0.434145
     32          1           0        2.179366   -3.196532   -0.207475
     33          1           0        3.061825   -2.706927    1.200415
     34          1           0        2.774846   -1.105621   -1.290190
     35          1           0        3.783194   -0.150575    1.358676
     36          1           0        3.109750    1.140511   -1.193530
     37          1           0        1.745586    1.839983    1.330696
     38          1           0        0.676076    0.513039   -1.155011
     39          1           0       -3.080783    3.232765   -0.023639
     40          1           0       -1.990507    2.633204   -1.216280
     41          1           0       -2.716893    1.214240    1.269538
     42          1           0       -1.283113    0.110134   -1.105589
     43          1           0       -2.087967   -1.117911    1.548946
     44          1           0       -3.232777   -1.727585   -1.167685
     45          1           0       -4.713154   -0.352366    1.036719
 ---------------------------------------------------------------------

 SCF Done:  E(RB3LYP) =  -1297.93307910     A.U. after   13 cycles

 The electronic state is 1-A.
 Alpha  occ. eigenvalues --  -19.20657 -19.19211 -19.19019 -19.18496 -19.18147
 Alpha  occ. eigenvalues --  -19.17880 -19.17286 -19.17202 -19.15445 -19.14428
 Alpha  occ. eigenvalues --  -19.13483 -10.30862 -10.30740 -10.26462 -10.26057
 Alpha  occ. eigenvalues --  -10.25991 -10.25819 -10.25705 -10.25145 -10.24815
 Alpha  occ. eigenvalues --  -10.24766 -10.24631 -10.24367  -1.09763  -1.08892
 Alpha  occ. eigenvalues --   -1.06548  -1.05484  -1.03834  -1.03454  -1.02976
 Alpha  occ. eigenvalues --   -1.02628  -1.01497  -1.00498  -0.99816  -0.82346
 Alpha  occ. eigenvalues --   -0.80050  -0.79376  -0.78465  -0.72316  -0.70397
 Alpha  occ. eigenvalues --   -0.67426  -0.65068  -0.63446  -0.62599  -0.61419
 Alpha  occ. eigenvalues --   -0.59972  -0.56664  -0.56292  -0.55417  -0.55034
 Alpha  occ. eigenvalues --   -0.53943  -0.53574  -0.53108  -0.52036  -0.51066
 Alpha  occ. eigenvalues --   -0.50847  -0.50121  -0.49859  -0.48774  -0.46621
 Alpha  occ. eigenvalues --   -0.46220  -0.45433  -0.44491  -0.44049  -0.43219
 Alpha  occ. eigenvalues --   -0.42697  -0.41885  -0.41261  -0.40322  -0.39014
 Alpha  occ. eigenvalues --   -0.37848  -0.37637  -0.37508  -0.36515  -0.36059
 Alpha  occ. eigenvalues --   -0.35641  -0.34585  -0.34328  -0.34003  -0.33565
 Alpha  occ. eigenvalues --   -0.32492  -0.31496  -0.30589  -0.30340  -0.29810
 Alpha  occ. eigenvalues --   -0.29075  -0.28931  -0.28372  -0.26765  -0.26377
 Alpha  occ. eigenvalues --   -0.26099
 Alpha virt. eigenvalues --   -0.02368  -0.01912  -0.01878  -0.00285   0.00251
 Alpha virt. eigenvalues --    0.00923   0.01721   0.02385   0.02784   0.03653
 Alpha virt. eigenvalues --    0.03922   0.04181   0.04976   0.05216   0.05599

 Mulliken atomic charges:
              1
     1  O   -0.536451
     2  C   -0.047852
     3  C    0.044552
     4  O   -0.510981
     5  H    0.360577
     6  C    0.030713
     7  O   -0.580139
     8  H    0.465642
     9  C    0.001820
    10  O   -0.528829
    11  H    0.355825
    12  C    0.033212
    13  O   -0.428040
    14  C    0.145253
    15  O   -0.282349
    16  C   -0.104129
    17  C    0.113486
    18  O   -0.543016
    19  H    0.396821
    20  C    0.135201
    21  O   -0.537633
    22  H    0.354643
    23  C   -0.068703
    24  O   -0.620270
    25  H    0.396602
    26  C   -0.037401
    27  O   -0.312411
    28  C    0.194104
    29  O   -0.547333
    30  H    0.360484
    31  H    0.367677
    32  H    0.139025
    33  H    0.133249
    34  H    0.132569
    35  H    0.131799
    36  H    0.116546
    37  H    0.144939
    38  H    0.131384
    39  H    0.140739
    40  H    0.150903
    41  H    0.133959
    42  H    0.135955
    43  H    0.152876
    44  H    0.157821
    45  H    0.127160
 Sum of Mulliken atomic charges =   0.00000

 Dipole moment (field-independent basis, Debye):
    X=             -2.8097    Y=             -0.8093    Z=              2.5654  Tot=              3.8898
 Quadrupole moment (field-independent basis, Debye-Ang):
   XX=           -119.3197   YY=           -132.2929   ZZ=           -141.7182
   XY=            -16.3130   XZ=              3.9644   YZ=              2.0270

  Exact polarizability: 228.943   1.289 193.919   0.827  -0.292 141.509
 Approx polarizability: 265.507   0.378 248.648   0.353   0.216 230.936

 ******    7 imaginary frequencies (negative Signs) ******

                     1                      2                      3
                     A                      A                      A
 Frequencies --  -324.3466              -290.0801              -288.9769
 Red. masses --     1.1602                 1.6772                 1.3616
 Frc consts  --     0.0719                 0.0831                 0.0670
 IR Inten    --   125.1558                 2.7625                77.9159
 Raman Activ --     1.2338                 0.0281                 0.5524

                     4                      5                      6
                     A                      A                      A
 Frequencies --  -256.6807               -82.3114               -70.3018
 Red. masses --     1.4483                 6.4894                 6.8330
 Frc consts  --     0.0562                 0.0259                 0.0199
 IR Inten    --    40.3169                 0.6787                 2.1051
 Raman Activ --     0.6563                 0.0599                 0.0248

                     7                      8                      9
                     A                      A                      A
 Frequencies --   -26.4661                11.2876                49.3581
 Red. masses --     6.4609                 6.6270                 6.7593
 Frc consts  --     0.0027                 0.0005                 0.0097
 IR Inten    --     0.4639                 0.7372                 0.2237
 Raman Activ --     0.0438                 0.0143                 0.0657

                    10                     11                     12
                     A                      A                      A
 Frequencies --    66.8417                81.2259                94.0271
 Red. masses --     6.3815                 6.2214                 6.2007
 Frc consts  --     0.0168                 0.0242                 0.0323
 IR Inten    --     3.2740                 1.0882                 2.2057
 Raman Activ --     0.1331                 0.0890                 0.3011

                    13                     14                     15
                     A                      A                      A
 Frequencies --   148.2778               162.8439               176.1474
 Red. masses --     6.1509                 5.8276                 8.0634
 Frc consts  --     0.0797                 0.0911                 0.1474
 IR Inten    --     2.6079                 4.5262                 1.8038
 Raman Activ --     0.3705                 0.2333                 0.7322

                    16                     17                     18
                     A                      A                      A
 Frequencies --   211.9804               221.8596               252.1033
 Red. masses --     7.1064                 5.0622                 4.4005
 Frc consts  --     0.1881                 0.1468                 0.1648
 IR Inten    --     0.8738                 4.8558                17.1545
 Raman Activ --     2.3428                 0.2632                 0.4791

                    19                     20                     21
                     A                      A                      A
 Frequencies --   281.9476               289.1698               293.5610
 Red. masses --     4.9881                 5.4286                 4.8106
 Frc consts  --     0.2336                 0.2674                 0.2443
 IR Inten    --     1.8518                 2.1727                 3.5745
 Raman Activ --     0.2582                 0.1059                 0.2253

                    22                     23                     24
                     A                      A                      A
 Frequencies --   302.4538               312.5539               322.6779
 Red. masses --     6.5519                 5.7669                 6.0611
 Frc consts  --     0.3531                 0.3319                 0.3718
 IR Inten    --    11.7381                 0.2563                 0.3697
 Raman Activ --     0.7972                 2.9135                 3.1046

                    25                     26                     27
                     A                      A                      A
 Frequencies --   346.5140               351.2472               380.2234
 Red. masses --     6.6454                 5.0991                 5.6175
 Frc consts  --     0.4701                 0.3707                 0.4785
 IR Inten    --    18.0479                 1.4477                 1.9622
 Raman Activ --     4.2743                 0.5941                 0.3360

                    28                     29                     30
                     A                      A                      A
 Frequencies --   385.8579               412.2247               438.1874
 Red. masses --     4.4818                 6.7438                 4.8423
 Frc consts  --     0.3932                 0.6752                 0.5478
 IR Inten    --    25.4038                 1.7229                 1.2168
 Raman Activ --     2.9561                 5.1783                 2.9405

                    31                     32                     33
                     A                      A                      A
 Frequencies --   441.6653               470.5364               483.1593
 Red. masses --     5.4961                 4.5588                 3.9710
 Frc consts  --     0.6317                 0.5947                 0.5462
 IR Inten    --     1.3458                 6.8014                15.3727
 Raman Activ --     1.4871                 1.4682                 5.1725

                    34                     35                     36
                     A                      A                      A
 Frequencies --   519.7494               539.5346               571.0521
 Red. masses --     4.5707                 3.0612                 4.1595
 Frc consts  --     0.7275                 0.5250                 0.7992
 IR Inten    --    12.1772                 2.1604                19.6167
 Raman Activ --     1.3137                 2.8630                 1.9001

                    37                     38                     39
                     A                      A                      A
 Frequencies --   587.0225               603.0820               619.5954
 Red. masses --     3.4983                 4.1629                 5.9577
 Frc consts  --     0.7103                 0.8921                 1.3475
 IR Inten    --    15.6925                13.2021                32.3816
 Raman Activ --     0.1420                 0.8555                 0.8444

                    40                     41                     42
                     A                      A                      A
 Frequencies --   635.5575               660.8457               679.2792
 Red. masses --     3.8982                 1.0522                 5.5650
 Frc consts  --     0.9277                 0.2707                 1.5129
 IR Inten    --    28.0971                91.6197                13.7905
 Raman Activ --     0.4597                 2.2914                 0.8083

                    43                     44                     45
                     A                      A                      A
 Frequencies --   699.2096               708.3398               728.5545
 Red. masses --     1.0699                 1.0606                 1.0900
 Frc consts  --     0.3082                 0.3135                 0.3409
 IR Inten    --    90.2915               116.2634               133.3935
 Raman Activ --     2.0520                 1.8195                 1.6972

                    46                     47                     48
                     A                      A                      A
 Frequencies --   816.1006               840.8033               848.8835
 Red. masses --     1.0765                 1.5004                 1.7125
 Frc consts  --     0.4224                 0.6249                 0.7271
 IR Inten    --    70.9240                16.0462                 0.5526
 Raman Activ --     1.0483                 0.3952                 0.8625

                    49                     50                     51
                     A                      A                      A
 Frequencies --   897.9867               921.3127               963.1569
 Red. masses --     1.2298                 6.0970                 3.8116
 Frc consts  --     0.5843                 3.0492                 2.0833
 IR Inten    --    68.5026               105.5772                86.1990
 Raman Activ --     0.9597                 2.7386                 0.7660

                    52                     53                     54
                     A                      A                      A
 Frequencies --   985.5550               991.1019              1000.5269
 Red. masses --     3.9998                 7.0051                 5.8337
 Frc consts  --     2.2890                 4.0542                 3.4408
 IR Inten    --    31.8104                16.9653               153.5873
 Raman Activ --     1.1158                 3.8061                 2.5719

                    55                     56                     57
                     A                      A                      A
 Frequencies --  1008.4639              1014.5946              1030.6293
 Red. masses --     6.1845                 5.5479                 5.3320
 Frc consts  --     3.7058                 3.3649                 3.3369
 IR Inten    --    41.8828               279.7243                83.4518
 Raman Activ --     2.5046                 3.5575                 2.0083

                    58                     59                     60
                     A                      A                      A
 Frequencies --  1047.6599              1057.0494              1064.7917
 Red. masses --     3.2390                 3.5788                 5.2448
 Frc consts  --     2.0946                 2.3560                 3.5035
 IR Inten    --   347.2482               237.9636                13.2092
 Raman Activ --     3.1581                10.8989                 2.8740

                    61                     62                     63
                     A                      A                      A
 Frequencies --  1071.1485              1082.3202              1091.6331
 Red. masses --     5.1281                 3.9615                 2.8311
 Frc consts  --     3.4666                 2.7342                 1.9877
 IR Inten    --   178.8174                64.0263                86.2075
 Raman Activ --     1.2406                 6.0086                 6.4758

                    64                     65                     66
                     A                      A                      A
 Frequencies --  1096.5142              1100.1595              1104.7800
 Red. masses --     2.8977                 2.5990                 3.0989
 Frc consts  --     2.0528                 1.8534                 2.2285
 IR Inten    --    22.6942                13.9681                21.7843
 Raman Activ --     3.1374                 9.7099                 8.5857

                    67                     68                     69
                     A                      A                      A
 Frequencies --  1123.1556              1128.0216              1137.0036
 Red. masses --     2.1717                 2.3531                 2.7375
 Frc consts  --     1.6141                 1.7641                 2.0851
 IR Inten    --    37.5060                27.5314                76.3111
 Raman Activ --     1.0389                 3.2465                17.7609

                    70                     71                     72
                     A                      A                      A
 Frequencies --  1150.6383              1155.4234              1157.8912
 Red. masses --     2.3855                 1.7167                 2.2766
 Frc consts  --     1.8609                 1.3503                 1.7983
 IR Inten    --     7.6847                 4.1702                 7.8015
 Raman Activ --     1.9673                 7.0766                 0.4746

                    73                     74                     75
                     A                      A                      A
 Frequencies --  1165.8441              1181.9430              1182.9222
 Red. masses --     2.1986                 1.6172                 1.4671
 Frc consts  --     1.7607                 1.3311                 1.2095
 IR Inten    --     4.2925                11.3465                 8.9789
 Raman Activ --     5.2141                 2.4655                 1.4212

                    76                     77                     78
                     A                      A                      A
 Frequencies --  1197.8611              1201.0678              1225.8134
 Red. masses --     1.4328                 1.5519                 1.4988
 Frc consts  --     1.2113                 1.3190                 1.3269
 IR Inten    --     5.6153                 8.3093                11.0511
 Raman Activ --     1.0740                 4.0874                 1.6943

                    79                     80                     81
                     A                      A                      A
 Frequencies --  1230.8860              1247.8361              1252.8144
 Red. masses --     1.4210                 1.1742                 1.1868
 Frc consts  --     1.2685                 1.0772                 1.0975
 IR Inten    --    27.0274                11.9955                19.5107
 Raman Activ --     1.9287                 1.3719                 0.5517

                    82                     83                     84
                     A                      A                      A
 Frequencies --  1272.1388              1273.8333              1279.2844
 Red. masses --     1.3290                 1.3911                 1.2514
 Frc consts  --     1.2672                 1.3300                 1.2067
 IR Inten    --    29.7752                 9.8949                 3.5261
 Raman Activ --     2.7424                 2.6947                 8.4166

                    85                     86                     87
                     A                      A                      A
 Frequencies --  1283.2663              1294.8198              1301.9917
 Red. masses --     1.3304                 1.2299                 1.2785
 Frc consts  --     1.2908                 1.2149                 1.2769
 IR Inten    --    47.3706                15.5623                 7.8086
 Raman Activ --     6.0807                 2.0133                 1.7047

                    88                     89                     90
                     A                      A                      A
 Frequencies --  1306.7594              1323.2125              1328.4183
 Red. masses --     1.2471                 1.5287                 1.3191
 Frc consts  --     1.2547                 1.5770                 1.3715
 IR Inten    --     5.6093                31.1023                 5.9307
 Raman Activ --     7.1436                 2.0724                 3.7300

                    91                     92                     93
                     A                      A                      A
 Frequencies --  1331.6813              1335.5504              1366.7503
 Red. masses --     1.2164                 1.1551                 1.2321
 Frc consts  --     1.2709                 1.2139                 1.3560
 IR Inten    --    69.2599                22.1766                48.8510
 Raman Activ --     8.3234                 2.7384                 3.1924

                    94                     95                     96
                     A                      A                      A
 Frequencies --  1368.5986              1372.4012              1375.9328
 Red. masses --     1.2535                 1.3832                 1.4416
 Frc consts  --     1.3833                 1.5349                 1.6081
 IR Inten    --     7.0027                 3.9338                 3.1937
 Raman Activ --     3.8614                 4.6093                15.4756

                    97                     98                     99
                     A                      A                      A
 Frequencies --  1387.4187              1389.2567              1397.0247
 Red. masses --     1.6587                 1.6891                 1.1801
 Frc consts  --     1.8812                 1.9208                 1.3570
 IR Inten    --    43.3095                 3.6553                25.0369
 Raman Activ --     3.1981                 4.3591                 1.4341

                   100                    101                    102
                     A                      A                      A
 Frequencies --  1406.2677              1425.2709              1445.1861
 Red. masses --     1.5676                 1.3447                 1.5496
 Frc consts  --     1.8265                 1.6094                 1.9069
 IR Inten    --     3.3486                17.0566                27.4328
 Raman Activ --     5.7617                 0.7996                 1.4438

                   103                    104                    105
                     A                      A                      A
 Frequencies --  1464.2378              1471.9618              1476.7741
 Red. masses --     1.4319                 1.3051                 1.3340
 Frc consts  --     1.8088                 1.6660                 1.7141
 IR Inten    --    23.8378                25.0563                34.2507
 Raman Activ --     2.4479                 1.6883                 0.6404

                   106                    107                    108
                     A                      A                      A
 Frequencies --  1480.7442              1481.0769              3231.1760
 Red. masses --     1.1066                 1.0752                 1.0700
 Frc consts  --     1.4296                 1.3896                 6.5821
 IR Inten    --     0.7988                 4.0773              1149.2217
 Raman Activ --     4.4523                 5.5310               165.4075

                   109                    110                    111
                     A                      A                      A
 Frequencies --  3255.2787              3267.1662              3270.6368
 Red. masses --     1.0803                 1.0576                 1.0703
 Frc consts  --     6.7450                 6.6513                 6.7454
 IR Inten    --    27.9065                36.2941                19.0380
 Raman Activ --    51.5344               111.6163               162.7183

                   112                    113                    114
                     A                      A                      A
 Frequencies --  3276.6281              3285.9873              3291.9566
 Red. masses --     1.0719                 1.0827                 1.0854
 Frc consts  --     6.7804                 6.8877                 6.9305
 IR Inten    --    35.1339                12.6741                23.0252
 Raman Activ --    42.6584                97.5105                87.6813

                   115                    116                    117
                     A                      A                      A
 Frequencies --  3301.2605              3301.9621              3307.0133
 Red. masses --     1.0868                 1.0868                 1.0855
 Frc consts  --     6.9786                 6.9814                 6.9944
 IR Inten    --    27.7502                 3.6433                13.8435
 Raman Activ --     7.9066                10.2518               171.8837

                   118                    119                    120
                     A                      A                      A
 Frequencies --  3310.4661              3316.4819              3319.9297
 Red. masses --     1.0859                 1.0867                 1.0863
 Frc consts  --     7.0113                 7.0425                 7.0542
 IR Inten    --     6.5793                28.3192                94.8382
 Raman Activ --    45.7089                 9.7749                14.2859

                   121                    122                    123
                     A                      A                      A
 Frequencies --  3324.2393              3326.6677              3331.6373
 Red. masses --     1.1063                 1.1040                 1.0707
 Frc consts  --     7.2029                 7.1982                 7.0022
 IR Inten    --    55.6178                82.4152               327.8857
 Raman Activ --    43.2544                54.7651               160.9502

                   124                    125                    126
                     A                      A                      A
 Frequencies --  3392.3727              3394.0674              3394.8475
 Red. masses --     1.0670                 1.0674                 1.0676
 Frc consts  --     7.2347                 7.2447                 7.2492
 IR Inten    --    36.6123                60.8332                48.1894
 Raman Activ --   152.9037               156.1760               182.5500

                   127                    128                    129
                     A                      A                      A
 Frequencies --  3396.5940              3919.8400              3921.0221
 Red. masses --     1.0656                 1.0675                 1.0677
 Frc consts  --     7.2433                 9.6642                 9.6719
 IR Inten    --    50.1878                71.4371                70.8133
 Raman Activ --   109.0976               112.4258                99.8194

 - Thermochemistry -
 -------------------
 Temperature   298.150 Kelvin.  Pressure   1.00000 Atm.
 Atom     1 has atomic number  8 and mass  15.99491

 Molecular mass:   342.11621 amu.
 Principal axes and moments of inertia in atomic units:
                           1         2         3
     Eigenvalues --  4462.25493********************
           X            0.99997  -0.00759   0.00009
           Y            0.00759   0.99997  -0.00120
           Z           -0.00008   0.00120   1.00000
 This molecule is an asymmetric top.
 Rotational symmetry number  1.
 Warning -- assumption of classical behavior for rotation
           may cause significant error
 Rotational temperatures (Kelvin)      0.01941     0.00700     0.00529
 Rotational constants (GHZ):           0.40445     0.14584     0.11015
    7 imaginary frequencies ignored.
 Zero-point vibrational energy     975501.6 (Joules/Mol)
                                  233.15048 (Kcal/Mol)
 Warning -- explicit consideration of  32 degrees of freedom as
           vibrations may cause significant error
 Vibrational temperatures:     16.24    71.02    96.17   116.87   135.28
          (Kelvin)            213.34   234.30   253.44   304.99   319.21
                              362.72   405.66   416.05   422.37   435.16
                              449.69   464.26   498.56   505.37   547.06
                              555.16   593.10   630.45   635.46   677.00
                              695.16   747.80   776.27   821.62   844.59
                              867.70   891.46   914.42   950.81   977.33
                             1006.01  1019.14  1048.23  1174.19  1209.73
                             1221.35  1292.00  1325.56  1385.77  1417.99
                             1425.97  1439.53  1450.95  1459.77  1482.84
                             1507.35  1520.86  1532.00  1541.14  1557.22
                             1570.61  1577.64  1582.88  1589.53  1615.97
                             1622.97  1635.89  1655.51  1662.39  1665.95
                             1677.39  1700.55  1701.96  1723.45  1728.07
                             1763.67  1770.97  1795.36  1802.52  1830.32
                             1832.76  1840.60  1846.33  1862.95  1873.27
                             1880.13  1903.81  1911.30  1915.99  1921.56
                             1966.45  1969.11  1974.58  1979.66  1996.18
                             1998.83  2010.00  2023.30  2050.64  2079.30
                             2106.71  2117.82  2124.75  2130.46  2130.94
                             4648.94  4683.61  4700.72  4705.71  4714.33
                             4727.80  4736.39  4749.77  4750.78  4758.05
                             4763.02  4771.67  4776.63  4782.83  4786.33
                             4793.48  4880.86  4883.30  4884.42  4886.94
                             5639.77  5641.47

 Zero-point correction=                           0.371549 (Hartree/Particle)
 Thermal correction to Energy=                    0.390185
 Thermal correction to Enthalpy=                  0.391129
 Thermal correction to Gibbs Free Energy=         0.323998
 Sum of electronic and zero-point Energies=          -1297.561530
 Sum of electronic and thermal Energies=             -1297.542894
 Sum of electronic and thermal Enthalpies=           -1297.541950
 Sum of electronic and thermal Free Energies=        -1297.609081

                     E (Thermal)             CV                S
                      KCal/Mol        Cal/Mol-Kelvin    Cal/Mol-Kelvin
 Total                  244.845             76.051            141.288
 Electronic               0.000              0.000              0.000
 Translational            0.889              2.981             43.384
 Rotational               0.889              2.981             35.158
 Vibrational            243.067             70.089             62.746
 Vibration     1          0.593              1.987              7.770
 Vibration     2          0.595              1.978              4.843
 Vibration     3          0.598              1.970              4.244
 Vibration     4          0.600              1.962              3.861
 Vibration     5          0.603              1.953              3.574
 Vibration     6          0.618              1.905              2.694
 Vibration     7          0.623              1.888              2.517
 Vibration     8          0.628              1.872              2.369
 Vibration     9          0.643              1.823              2.027
 Vibration    10          0.648              1.808              1.944
 Vibration    11          0.664              1.759              1.716
 Vibration    12          0.681              1.707              1.522
 Vibration    13          0.686              1.694              1.479
 Vibration    14          0.688              1.686              1.453
 Vibration    15          0.694              1.669              1.403
 Vibration    16          0.701              1.650              1.349
 Vibration    17          0.708              1.630              1.297
 Vibration    18          0.725              1.582              1.182
 Vibration    19          0.728              1.573              1.161
 Vibration    20          0.750              1.512              1.038
 Vibration    21          0.755              1.500              1.016
 Vibration    22          0.776              1.444              0.919
 Vibration    23          0.798              1.387              0.832
 Vibration    24          0.801              1.379              0.821
 Vibration    25          0.828              1.315              0.736
 Vibration    26          0.839              1.287              0.702
 Vibration    27          0.875              1.206              0.611
 Vibration    28          0.895              1.163              0.566
 Vibration    29          0.927              1.094              0.502
 Vibration    30          0.944              1.059              0.473
 Vibration    31          0.961              1.025              0.444
 Vibration    32          0.980              0.991              0.417

 Normal termination of Gaussian 09 at Thu Jan 21 17:49:37 2016.
