 Gaussian 09, Revision B.01,
 Gaussian 09:  EM64L-G09RevB.01 12-Aug-2010

 -------------------------------------------------
 # freq=raman b3lyp/6-31g(2df,p) geom=connectivity
 -------------------------------------------------

 ------------
 280 5000.com
 ------------
 Symbolic Z-matrix:
 Charge =  0 Multiplicity = 1

                         Standard orientation:
 ---------------------------------------------------------------------
 Center     Atomic      Atomic             Coordinates (Angstroms)
 Number     Number       Type             X           Y           Z
 ---------------------------------------------------------------------
      1          8           0       -5.139455   -0.365373    0.326793
      2          6           0       -3.783398   -0.193342   -0.109493
      3          6           0       -3.323981    1.222267    0.200734
      4          8           0       -4.101798    2.226482   -0.465952
      5          1           0       -5.076285    1.999782   -0.468869
      6          6           0       -1.866506    1.485840   -0.138757
      7          8           0       -1.429196    2.788056    0.278463
      8          1           0       -0.473131    2.901532    0.006800
      9          6           0       -3.026971   -2.591842   -0.127220
     10          8           0       -4.216197   -3.249824    0.332368
     11          1           0       -4.141718   -4.235029    0.178066
     12          6           0       -2.740805   -1.186149    0.376847
     13          8           0       -1.399537   -0.845249   -0.002121
     14          6           0       -0.908352    0.439726    0.407603
     15          8           0        0.257328    0.587611   -0.415315
     16          6           0        1.543157    0.193878    0.086129
     17          6           0        2.111358   -1.072118   -0.533397
     18          8           0        1.256678   -2.218578   -0.409455
     19          1           0        0.327523   -1.860696   -0.509355
     20          6           0        3.413415   -1.494572    0.129133
     21          8           0        3.950480   -2.675102   -0.485197
     22          1           0        4.838048   -2.941166   -0.109370
     23          6           0        2.238699    2.634355    0.154980
     24          8           0        1.082512    3.310936   -0.359849
     25          1           0        1.238923    4.272315   -0.136964
     26          6           0        2.607035    1.220394   -0.263978
     27          8           0        3.805546    0.903596    0.459345
     28          6           0        4.375928   -0.327233   -0.009816
     29          8           0        5.557568   -0.608145    0.744980
     30          1           0       -5.699086   -0.546897   -0.431799
     31          1           0       -3.440599    1.371676    1.253814
     32          1           0       -3.801122   -0.279525   -1.175870
     33          1           0       -1.786090    1.455822   -1.205309
     34          1           0       -2.783587   -1.206141    1.445805
     35          1           0       -2.193310   -3.207053    0.140035
     36          1           0       -3.073464   -2.549019   -1.195351
     37          1           0       -0.714499    0.522889    1.456605
     38          1           0        3.082189    3.251381   -0.074591
     39          1           0        2.802406    1.194370   -1.315668
     40          1           0        1.492659    0.079990    1.148851
     41          1           0        2.296353   -0.892084   -1.571792
     42          1           0        3.236449   -1.685436    1.166993
     43          1           0        4.640389   -0.216388   -1.040676
     44          1           0        2.137156    2.621590    1.220074
     45          1           0        6.261907   -0.874413    0.149490
 ---------------------------------------------------------------------

 SCF Done:  E(RB3LYP) =  -1297.93703289     A.U. after   13 cycles

 The electronic state is 1-A.
 Alpha  occ. eigenvalues --  -19.17438 -19.16651 -19.16527 -19.16416 -19.15926
 Alpha  occ. eigenvalues --  -19.14821 -19.14107 -19.13864 -19.12409 -19.11847
 Alpha  occ. eigenvalues --  -19.09787 -10.29122 -10.28915 -10.25205 -10.24386
 Alpha  occ. eigenvalues --  -10.24317 -10.24201 -10.23395 -10.23141 -10.22749
 Alpha  occ. eigenvalues --  -10.22739 -10.22099 -10.21772  -1.08183  -1.07405
 Alpha  occ. eigenvalues --   -1.04458  -1.03109  -1.02290  -1.01873  -1.00904
 Alpha  occ. eigenvalues --   -1.00435  -0.99383  -0.98580  -0.96958  -0.81167
 Alpha  occ. eigenvalues --   -0.78623  -0.78003  -0.76485  -0.70661  -0.68244
 Alpha  occ. eigenvalues --   -0.65549  -0.63225  -0.61628  -0.61021  -0.60342
 Alpha  occ. eigenvalues --   -0.58400  -0.54946  -0.54277  -0.53567  -0.53203
 Alpha  occ. eigenvalues --   -0.52449  -0.51999  -0.51287  -0.50059  -0.49062
 Alpha  occ. eigenvalues --   -0.48996  -0.48622  -0.47877  -0.46893  -0.45178
 Alpha  occ. eigenvalues --   -0.44503  -0.43706  -0.42500  -0.42055  -0.41731
 Alpha  occ. eigenvalues --   -0.40787  -0.39903  -0.39145  -0.38829  -0.38070
 Alpha  occ. eigenvalues --   -0.36659  -0.36354  -0.35972  -0.34257  -0.33547
 Alpha  occ. eigenvalues --   -0.33217  -0.32973  -0.32596  -0.32427  -0.31509
 Alpha  occ. eigenvalues --   -0.31044  -0.29818  -0.29361  -0.28500  -0.27791
 Alpha  occ. eigenvalues --   -0.27462  -0.26739  -0.26657  -0.25038  -0.24660
 Alpha  occ. eigenvalues --   -0.23909
 Alpha virt. eigenvalues --    0.03157   0.03972   0.04512   0.06187   0.06599
 Alpha virt. eigenvalues --    0.08107   0.09398   0.09699   0.10738   0.10993
 Alpha virt. eigenvalues --    0.12387   0.12648   0.13366   0.14046   0.14648

 Mulliken atomic charges:
              1
     1  O   -0.437673
     2  C    0.066972
     3  C    0.092567
     4  O   -0.469506
     5  H    0.283584
     6  C    0.142244
     7  O   -0.504713
     8  H    0.327173
     9  C   -0.074526
    10  O   -0.452534
    11  H    0.301649
    12  C    0.086456
    13  O   -0.278771
    14  C    0.093007
    15  O   -0.291048
    16  C    0.089528
    17  C    0.073917
    18  O   -0.487292
    19  H    0.298153
    20  C    0.135360
    21  O   -0.465242
    22  H    0.288784
    23  C   -0.091713
    24  O   -0.422672
    25  H    0.314141
    26  C    0.058016
    27  O   -0.273799
    28  C    0.161945
    29  O   -0.436526
    30  H    0.298780
    31  H    0.074815
    32  H    0.075676
    33  H    0.086574
    34  H    0.088361
    35  H    0.105926
    36  H    0.091658
    37  H    0.099020
    38  H    0.112478
    39  H    0.093088
    40  H    0.093365
    41  H    0.077012
    42  H    0.090054
    43  H    0.076075
    44  H    0.112216
    45  H    0.297423
 Sum of Mulliken atomic charges =   0.00000

 Dipole moment (field-independent basis, Debye):
    X=              2.5570    Y=             -0.3703    Z=             -1.3632  Tot=              2.9212
 Quadrupole moment (field-independent basis, Debye-Ang):
   XX=           -111.9871   YY=           -129.0149   ZZ=           -134.6692
   XY=             13.5016   XZ=              2.5034   YZ=              0.2362

  Exact polarizability: 217.579  -2.486 178.065   1.497   0.461 122.998
 Approx polarizability: 259.422  -2.993 238.970   1.528   0.899 210.026

 ******    7 imaginary frequencies (negative Signs) ******

                     1                      2                      3
                     A                      A                      A
 Frequencies --  -286.4609              -275.6851              -244.1470
 Red. masses --     1.7183                 1.7853                 1.2506
 Frc consts  --     0.0831                 0.0799                 0.0439
 IR Inten    --     2.0602                 8.5990               117.2029
 Raman Activ --     0.0127                 0.0940                 2.5318

                     4                      5                      6
                     A                      A                      A
 Frequencies --  -201.5876               -68.2788               -41.0440
 Red. masses --     1.2414                 6.7880                 6.4586
 Frc consts  --     0.0297                 0.0186                 0.0064
 IR Inten    --    89.6187                 0.8642                 0.1968
 Raman Activ --     1.7992                 0.0250                 0.0543

                     7                      8                      9
                     A                      A                      A
 Frequencies --   -13.3716                53.9837                62.6677
 Red. masses --     6.3486                 6.9070                 6.3319
 Frc consts  --     0.0007                 0.0119                 0.0147
 IR Inten    --     1.7316                 0.0359                 1.9739
 Raman Activ --     0.0517                 0.0309                 0.1328

                    10                     11                     12
                     A                      A                      A
 Frequencies --    78.6447                86.7314               137.1169
 Red. masses --     6.5988                 6.9847                 5.7070
 Frc consts  --     0.0240                 0.0310                 0.0632
 IR Inten    --     0.5299                 1.6503                 0.6280
 Raman Activ --     0.4050                 0.0544                 0.0437

                    13                     14                     15
                     A                      A                      A
 Frequencies --   153.0213               180.8107               186.5767
 Red. masses --     6.1256                 5.9762                 7.7670
 Frc consts  --     0.0845                 0.1151                 0.1593
 IR Inten    --     2.2034                 4.0690                 1.9776
 Raman Activ --     0.4153                 0.4495                 0.5010

                    16                     17                     18
                     A                      A                      A
 Frequencies --   214.3546               231.6380               249.6863
 Red. masses --     7.0875                 5.5466                 4.5711
 Frc consts  --     0.1919                 0.1753                 0.1679
 IR Inten    --     0.1894                 3.9129                18.1982
 Raman Activ --     2.0784                 0.7559                 0.1919

                    19                     20                     21
                     A                      A                      A
 Frequencies --   283.3562               293.8515               296.9184
 Red. masses --     4.1205                 4.1736                 5.4670
 Frc consts  --     0.1949                 0.2123                 0.2840
 IR Inten    --     1.1581                 2.1579                 4.8702
 Raman Activ --     0.1961                 0.4969                 0.4461

                    22                     23                     24
                     A                      A                      A
 Frequencies --   310.2830               315.9867               317.4731
 Red. masses --     4.9726                 6.0063                 6.2807
 Frc consts  --     0.2821                 0.3533                 0.3730
 IR Inten    --     5.7546                 2.5235                 1.7420
 Raman Activ --     0.6360                 4.7167                 2.0931

                    25                     26                     27
                     A                      A                      A
 Frequencies --   343.3361               357.1191               375.6801
 Red. masses --     5.7927                 5.4600                 5.1049
 Frc consts  --     0.4023                 0.4103                 0.4245
 IR Inten    --    12.4191                 1.8721                 1.5300
 Raman Activ --     0.6939                 1.3242                 0.3816

                    28                     29                     30
                     A                      A                      A
 Frequencies --   400.9039               421.3441               432.1563
 Red. masses --     4.1957                 6.6092                 5.3912
 Frc consts  --     0.3973                 0.6913                 0.5932
 IR Inten    --    11.7426                 2.3526                 0.7075
 Raman Activ --     2.1534                 5.8317                 2.3906

                    31                     32                     33
                     A                      A                      A
 Frequencies --   436.7798               468.2651               484.7713
 Red. masses --     4.8954                 4.4052                 4.1697
 Frc consts  --     0.5503                 0.5691                 0.5773
 IR Inten    --     2.7899                 3.4104                13.5909
 Raman Activ --     1.2168                 3.1254                 1.4065

                    34                     35                     36
                     A                      A                      A
 Frequencies --   507.5383               518.2756               565.3257
 Red. masses --     3.1714                 3.4719                 4.3631
 Frc consts  --     0.4813                 0.5495                 0.8216
 IR Inten    --     8.2686                 4.4329                16.0892
 Raman Activ --     2.8779                 3.1109                 1.9981

                    37                     38                     39
                     A                      A                      A
 Frequencies --   582.3772               595.8793               606.1454
 Red. masses --     3.9324                 3.6553                 5.7406
 Frc consts  --     0.7858                 0.7647                 1.2427
 IR Inten    --     6.8417                18.2230                21.4686
 Raman Activ --     0.7245                 1.0530                 0.6993

                    40                     41                     42
                     A                      A                      A
 Frequencies --   626.6135               676.1627               688.9206
 Red. masses --     3.4828                 4.3122                 1.1115
 Frc consts  --     0.8057                 1.1616                 0.3108
 IR Inten    --    17.4735                21.6893                81.1348
 Raman Activ --     0.3878                 0.8298                 5.6681

                    43                     44                     45
                     A                      A                      A
 Frequencies --   711.1657               730.6103               750.7245
 Red. masses --     1.0479                 1.0515                 1.0946
 Frc consts  --     0.3123                 0.3307                 0.3635
 IR Inten    --    84.6701                82.1814                94.7808
 Raman Activ --     4.3935                 4.5686                 3.8218

                    46                     47                     48
                     A                      A                      A
 Frequencies --   798.3752               814.2726               849.6565
 Red. masses --     1.0816                 1.0798                 1.7651
 Frc consts  --     0.4062                 0.4218                 0.7508
 IR Inten    --    79.3162                72.9593                 2.7123
 Raman Activ --     3.4013                 1.2753                 0.5046

                    49                     50                     51
                     A                      A                      A
 Frequencies --   864.5643               916.1758               962.0828
 Red. masses --     1.6870                 5.5974                 4.1475
 Frc consts  --     0.7430                 2.7682                 2.2618
 IR Inten    --    11.9846                64.3562                60.2893
 Raman Activ --     1.4057                 1.3609                 0.5898

                    52                     53                     54
                     A                      A                      A
 Frequencies --   971.6518               991.5239               995.7617
 Red. masses --     5.3129                 5.2290                 5.8009
 Frc consts  --     2.9553                 3.0288                 3.3889
 IR Inten    --    17.4240               159.7080               160.0219
 Raman Activ --     4.3445                 1.4421                 1.0282

                    55                     56                     57
                     A                      A                      A
 Frequencies --  1003.6334              1014.6782              1028.4247
 Red. masses --     6.1255                 6.1509                 4.8662
 Frc consts  --     3.6353                 3.7312                 3.0324
 IR Inten    --   163.8922                33.2005               302.0464
 Raman Activ --     1.7972                 2.9447                 3.1144

                    58                     59                     60
                     A                      A                      A
 Frequencies --  1035.4350              1051.7489              1067.4378
 Red. masses --     7.4058                 5.0457                 4.5468
 Frc consts  --     4.6781                 3.2885                 3.0524
 IR Inten    --   380.6443                57.5379                65.8050
 Raman Activ --     1.3455                 2.5337                12.1534

                    61                     62                     63
                     A                      A                      A
 Frequencies --  1071.2122              1075.3205              1081.5941
 Red. masses --     3.7461                 4.1631                 2.7957
 Frc consts  --     2.5327                 2.8363                 1.9269
 IR Inten    --    93.4182                13.4291                46.3063
 Raman Activ --     0.7503                 0.4663                 7.7143

                    64                     65                     66
                     A                      A                      A
 Frequencies --  1094.0734              1100.4101              1115.3405
 Red. masses --     2.4859                 3.0666                 2.5751
 Frc consts  --     1.7532                 2.1878                 1.8874
 IR Inten    --     6.0274                25.4489                28.5050
 Raman Activ --     4.2313                12.9407                 8.7994

                    67                     68                     69
                     A                      A                      A
 Frequencies --  1119.8297              1122.5435              1128.0129
 Red. masses --     2.5928                 2.5972                 2.2014
 Frc consts  --     1.9157                 1.9283                 1.6503
 IR Inten    --    39.8311                15.9344                33.7750
 Raman Activ --     3.7272                 9.7163                 8.8066

                    70                     71                     72
                     A                      A                      A
 Frequencies --  1139.3220              1145.4823              1154.4531
 Red. masses --     2.6989                 2.4130                 2.0190
 Frc consts  --     2.0641                 1.8655                 1.5854
 IR Inten    --     9.2913                 4.5889                22.5096
 Raman Activ --     3.6449                 4.2757                 2.3157

                    73                     74                     75
                     A                      A                      A
 Frequencies --  1162.9064              1174.3860              1182.5586
 Red. masses --     2.2009                 1.8988                 2.0399
 Frc consts  --     1.7537                 1.5429                 1.6807
 IR Inten    --    30.0274                 4.4916                12.6084
 Raman Activ --     5.0723                 2.9275                 1.8442

                    76                     77                     78
                     A                      A                      A
 Frequencies --  1202.3061              1208.9030              1210.7682
 Red. masses --     1.4719                 1.2810                 1.2314
 Frc consts  --     1.2536                 1.1030                 1.0635
 IR Inten    --     8.7389                 5.4104                13.5495
 Raman Activ --     3.2361                 1.2505                 7.0147

                    79                     80                     81
                     A                      A                      A
 Frequencies --  1223.1000              1244.6845              1249.0539
 Red. masses --     1.2738                 1.3253                 1.2359
 Frc consts  --     1.1227                 1.2098                 1.1360
 IR Inten    --     2.9047                20.1284                11.3258
 Raman Activ --     1.8516                 1.7660                 1.6589

                    82                     83                     84
                     A                      A                      A
 Frequencies --  1256.6758              1278.3906              1288.8377
 Red. masses --     1.1617                 1.3856                 1.2341
 Frc consts  --     1.0809                 1.3341                 1.2078
 IR Inten    --    17.8905                58.4242                 6.5431
 Raman Activ --     2.3726                 7.4193                 5.8911

                    85                     86                     87
                     A                      A                      A
 Frequencies --  1290.2060              1296.2726              1298.3631
 Red. masses --     1.2941                 1.3161                 1.3102
 Frc consts  --     1.2693                 1.3030                 1.3013
 IR Inten    --     2.7713                15.4520                33.4524
 Raman Activ --     3.9365                 2.7636                 2.7010

                    88                     89                     90
                     A                      A                      A
 Frequencies --  1305.3661              1313.4328              1328.5578
 Red. masses --     1.2751                 1.2101                 1.3490
 Frc consts  --     1.2802                 1.2299                 1.4029
 IR Inten    --    11.5373                15.3870                11.8473
 Raman Activ --     7.6608                11.2703                 2.7645

                    91                     92                     93
                     A                      A                      A
 Frequencies --  1330.3949              1333.7928              1342.3190
 Red. masses --     1.2004                 1.3157                 1.3453
 Frc consts  --     1.2518                 1.3791                 1.4282
 IR Inten    --    42.5318                14.9596                44.5732
 Raman Activ --     4.0056                 7.5670                 2.9755

                    94                     95                     96
                     A                      A                      A
 Frequencies --  1356.4489              1359.6642              1364.8127
 Red. masses --     1.3443                 1.2494                 1.6564
 Frc consts  --     1.4573                 1.3609                 1.8179
 IR Inten    --    11.3163                20.2805                17.9946
 Raman Activ --     7.3304                 9.8575                 5.6857

                    97                     98                     99
                     A                      A                      A
 Frequencies --  1384.0036              1388.9469              1402.0421
 Red. masses --     1.3066                 1.5174                 1.5231
 Frc consts  --     1.4746                 1.7248                 1.7640
 IR Inten    --     4.2211                 5.8400                39.7451
 Raman Activ --     1.4543                 3.6708                 2.5019

                   100                    101                    102
                     A                      A                      A
 Frequencies --  1403.9618              1414.7433              1464.8784
 Red. masses --     1.3726                 1.5262                 1.3282
 Frc consts  --     1.5940                 1.7997                 1.6793
 IR Inten    --     7.5886                18.9767                22.0181
 Raman Activ --     2.7246                 5.9915                 4.1190

                   103                    104                    105
                     A                      A                      A
 Frequencies --  1470.1544              1474.2579              1487.7873
 Red. masses --     1.0732                 1.1212                 1.3833
 Frc consts  --     1.3666                 1.4357                 1.8041
 IR Inten    --     2.8976                 1.4990                23.8701
 Raman Activ --     8.1149                 3.7332                 0.8224

                   106                    107                    108
                     A                      A                      A
 Frequencies --  1515.3590              1529.6153              3219.1435
 Red. masses --     1.2534                 1.2330                 1.0678
 Frc consts  --     1.6958                 1.6998                 6.5196
 IR Inten    --    50.2825                48.4956              1021.3841
 Raman Activ --     1.5440                 0.6003               152.6929

                   109                    110                    111
                     A                      A                      A
 Frequencies --  3248.7069              3257.3541              3259.7342
 Red. masses --     1.0575                 1.0589                 1.0798
 Frc consts  --     6.5756                 6.6196                 6.7602
 IR Inten    --    30.8417                16.6432                 0.7679
 Raman Activ --    58.7380               148.4226               112.1761

                   112                    113                    114
                     A                      A                      A
 Frequencies --  3263.3200              3264.9880              3268.8137
 Red. masses --     1.0826                 1.0812                 1.0838
 Frc consts  --     6.7923                 6.7910                 6.8232
 IR Inten    --    18.3148                16.4786                13.7718
 Raman Activ --    15.2379                 9.4327                41.4678

                   115                    116                    117
                     A                      A                      A
 Frequencies --  3275.3138              3277.3798              3285.0251
 Red. masses --     1.0840                 1.0827                 1.0861
 Frc consts  --     6.8518                 6.8516                 6.9054
 IR Inten    --     8.6085                11.7789                45.0363
 Raman Activ --    26.8673               176.2182                16.5297

                   118                    119                    120
                     A                      A                      A
 Frequencies --  3286.4359              3296.5032              3300.4666
 Red. masses --     1.0858                 1.0877                 1.0875
 Frc consts  --     6.9098                 6.9642                 6.9796
 IR Inten    --    26.3812                44.8923                46.1944
 Raman Activ --     2.3025                 5.8978                37.0122

                   121                    122                    123
                     A                      A                      A
 Frequencies --  3303.9490              3309.6255              3315.1632
 Red. masses --     1.1027                 1.1027                 1.0677
 Frc consts  --     7.0924                 7.1163                 6.9138
 IR Inten    --    77.0421                88.5298               251.0783
 Raman Activ --    17.4268                51.3563               150.2250

                   124                    125                    126
                     A                      A                      A
 Frequencies --  3335.9983              3340.9552              3342.9506
 Red. masses --     1.0658                 1.0683                 1.0663
 Frc consts  --     6.9883                 7.0259                 7.0207
 IR Inten    --    16.3620                29.8038                23.0169
 Raman Activ --   139.4877               175.0397               176.4578

                   127                    128                    129
                     A                      A                      A
 Frequencies --  3363.0681              3860.5287              3866.0564
 Red. masses --     1.0663                 1.0678                 1.0673
 Frc consts  --     7.1056                 9.3761                 9.3990
 IR Inten    --    50.2018                63.8179                64.3604
 Raman Activ --   140.2364                88.5645               107.0381

 - Thermochemistry -
 -------------------
 Temperature   298.150 Kelvin.  Pressure   1.00000 Atm.
 Atom     1 has atomic number  8 and mass  15.99491

 Molecular mass:   342.11621 amu.
 Principal axes and moments of inertia in atomic units:
                           1         2         3
     Eigenvalues --  4416.32430********************
           X            0.99998   0.00704   0.00016
           Y           -0.00704   0.99997   0.00193
           Z           -0.00015  -0.00193   1.00000
 This molecule is an asymmetric top.
 Rotational symmetry number  1.
 Warning -- assumption of classical behavior for rotation
           may cause significant error
 Rotational temperatures (Kelvin)      0.01961     0.00688     0.00523
 Rotational constants (GHZ):           0.40865     0.14329     0.10891
    7 imaginary frequencies ignored.
 Zero-point vibrational energy     972119.2 (Joules/Mol)
                                  232.34207 (Kcal/Mol)
 Warning -- explicit consideration of  32 degrees of freedom as
           vibrations may cause significant error
 Vibrational temperatures:     77.67    90.16   113.15   124.79   197.28
          (Kelvin)            220.16   260.15   268.44   308.41   333.28
                              359.24   407.69   422.79   427.20   446.43
                              454.63   456.77   493.98   513.81   540.52
                              576.81   606.22   621.78   628.43   673.73
                              697.48   730.23   745.68   813.38   837.91
                              857.34   872.11   901.56   972.85   991.20
                             1023.21  1051.18  1080.12  1148.68  1171.56
                             1222.46  1243.91  1318.17  1384.22  1397.99
                             1426.58  1432.68  1444.00  1459.89  1479.67
                             1489.76  1513.23  1535.80  1541.23  1547.14
                             1556.17  1574.13  1583.24  1604.72  1611.18
                             1615.09  1622.96  1639.23  1648.09  1661.00
                             1673.16  1689.68  1701.44  1729.85  1739.34
                             1742.02  1759.77  1790.82  1797.11  1808.07
                             1839.32  1854.35  1856.32  1865.04  1868.05
                             1878.13  1889.73  1911.50  1914.14  1919.03
                             1931.30  1951.62  1956.25  1963.66  1991.27
                             1998.38  2017.22  2019.99  2035.50  2107.63
                             2115.22  2121.13  2140.59  2180.26  2200.77
                             4631.62  4674.16  4686.60  4690.02  4695.18
                             4697.58  4703.09  4712.44  4715.41  4726.41
                             4728.44  4742.93  4748.63  4753.64  4761.81
                             4769.77  4799.75  4806.88  4809.75  4838.70
                             5554.43  5562.39

 Zero-point correction=                           0.370261 (Hartree/Particle)
 Thermal correction to Energy=                    0.388607
 Thermal correction to Enthalpy=                  0.389551
 Thermal correction to Gibbs Free Energy=         0.324879
 Sum of electronic and zero-point Energies=          -1297.566772
 Sum of electronic and thermal Energies=             -1297.548426
 Sum of electronic and thermal Enthalpies=           -1297.547482
 Sum of electronic and thermal Free Energies=        -1297.612154

                     E (Thermal)             CV                S
                      KCal/Mol        Cal/Mol-Kelvin    Cal/Mol-Kelvin
 Total                  243.854             76.111            136.113
 Electronic               0.000              0.000              0.000
 Translational            0.889              2.981             43.384
 Rotational               0.889              2.981             35.176
 Vibrational            242.077             70.150             57.552
 Vibration     1          0.596              1.976              4.666
 Vibration     2          0.597              1.972              4.371
 Vibration     3          0.600              1.964              3.924
 Vibration     4          0.601              1.958              3.732
 Vibration     5          0.614              1.916              2.844
 Vibration     6          0.619              1.899              2.634
 Vibration     7          0.630              1.866              2.320
 Vibration     8          0.632              1.858              2.262
 Vibration     9          0.644              1.819              2.006
 Vibration    10          0.653              1.793              1.866
 Vibration    11          0.662              1.763              1.733
 Vibration    12          0.682              1.705              1.513
 Vibration    13          0.689              1.685              1.452
 Vibration    14          0.691              1.679              1.434
 Vibration    15          0.699              1.654              1.361
 Vibration    16          0.703              1.643              1.331
 Vibration    17          0.704              1.640              1.323
 Vibration    18          0.722              1.589              1.197
 Vibration    19          0.732              1.561              1.135
 Vibration    20          0.747              1.522              1.057
 Vibration    21          0.767              1.468              0.959
 Vibration    22          0.784              1.424              0.887
 Vibration    23          0.793              1.400              0.852
 Vibration    24          0.797              1.390              0.837
 Vibration    25          0.825              1.320              0.742
 Vibration    26          0.841              1.284              0.697
 Vibration    27          0.863              1.233              0.640
 Vibration    28          0.873              1.210              0.614
 Vibration    29          0.921              1.106              0.513
 Vibration    30          0.939              1.069              0.481
 Vibration    31          0.954              1.041              0.457
 Vibration    32          0.965              1.019              0.439

 Normal termination of Gaussian 09 at Sat Mar  5 01:13:23 2016.
