 Gaussian 09, Revision B.01,
 Gaussian 09:  EM64L-G09RevB.01 12-Aug-2010

 -------------------------------------------------
 # freq=raman b3lyp/6-31+g(2d,p) geom=connectivity
 -------------------------------------------------

 -----------------
 280 6276/6276.com
 -----------------
 Symbolic Z-matrix:
 Charge =  0 Multiplicity = 1

                         Standard orientation:
 ---------------------------------------------------------------------
 Center     Atomic      Atomic             Coordinates (Angstroms)
 Number     Number       Type             X           Y           Z
 ---------------------------------------------------------------------
      1          8           0        5.077417   -0.311418   -0.289557
      2          6           0        3.725976   -0.068911    0.126121
      3          6           0        3.218884    1.304847   -0.279900
      4          8           0        4.226381    2.304987   -0.068594
      5          1           0        5.105097    1.874795   -0.274004
      6          6           0        1.799304    1.634813    0.151490
      7          8           0        1.192723    2.888976   -0.195118
      8          1           0        0.265975    2.968756    0.170747
      9          6           0        3.103553   -2.529051    0.297761
     10          8           0        4.357434   -3.155927   -0.007612
     11          1           0        4.196933   -4.142392    0.039816
     12          6           0        2.777228   -1.173970   -0.310488
     13          8           0        1.442278   -0.852546    0.104662
     14          6           0        0.956086    0.443281   -0.273498
     15          8           0       -0.236854    0.553324    0.517357
     16          6           0       -1.530246    0.182852    0.019109
     17          6           0       -1.986553   -1.229365    0.349065
     18          8           0       -0.967685   -2.085033   -0.189119
     19          1           0       -0.061363   -1.714418    0.014283
     20          6           0       -3.343149   -1.601535   -0.229204
     21          8           0       -3.744795   -2.840683    0.372097
     22          1           0       -4.634859   -3.009963   -0.049490
     23          6           0       -2.399812    2.533888   -0.175347
     24          8           0       -1.508172    3.411266    0.527282
     25          1           0       -1.584702    4.341370    0.168173
     26          6           0       -2.642538    1.146841    0.397746
     27          8           0       -3.893919    0.796574   -0.211604
     28          6           0       -4.362416   -0.523594    0.101482
     29          8           0       -5.522283   -0.638642   -0.735502
     30          1           0        5.629689   -0.451176    0.483141
     31          1           0       -6.303373   -0.743419   -0.187305
     32          1           0       -3.347755    3.025053   -0.246481
     33          1           0       -2.747805    1.197086    1.461369
     34          1           0       -2.018487    2.411848   -1.167616
     35          1           0       -1.453173    0.225220   -1.047270
     36          1           0       -2.016414   -1.347211    1.412136
     37          1           0       -3.267477   -1.718828   -1.290060
     38          1           0       -4.643233   -0.581732    1.132336
     39          1           0        1.814574    1.616616    1.221226
     40          1           0        0.727384    0.481987   -1.318054
     41          1           0        2.802115   -1.254496   -1.377163
     42          1           0        2.328996   -3.205572    0.002327
     43          1           0        3.051864   -2.421590    1.361096
     44          1           0        3.733264   -0.083105    1.196002
     45          1           0        3.144644    1.243590   -1.345562
 ---------------------------------------------------------------------

 SCF Done:  E(RB3LYP) =  -1297.98892830     A.U. after   13 cycles

 The electronic state is 1-A.
 Alpha  occ. eigenvalues --  -19.19467 -19.18281 -19.18157 -19.17974 -19.17907
 Alpha  occ. eigenvalues --  -19.17733 -19.16759 -19.16679 -19.14972 -19.14489
 Alpha  occ. eigenvalues --  -19.13175 -10.31245 -10.30600 -10.26187 -10.25834
 Alpha  occ. eigenvalues --  -10.25779 -10.25280 -10.25096 -10.24970 -10.24637
 Alpha  occ. eigenvalues --  -10.24622 -10.24544 -10.24096  -1.10560  -1.09240
 Alpha  occ. eigenvalues --   -1.05876  -1.04934  -1.04215  -1.03798  -1.03171
 Alpha  occ. eigenvalues --   -1.02899  -1.01862  -1.00683  -1.00146  -0.82440
 Alpha  occ. eigenvalues --   -0.81075  -0.79323  -0.78768  -0.71944  -0.70130
 Alpha  occ. eigenvalues --   -0.67797  -0.64952  -0.63323  -0.62998  -0.61235
 Alpha  occ. eigenvalues --   -0.60208  -0.56532  -0.56236  -0.55278  -0.54992
 Alpha  occ. eigenvalues --   -0.54500  -0.53728  -0.52873  -0.52079  -0.51527
 Alpha  occ. eigenvalues --   -0.50530  -0.50087  -0.49940  -0.48998  -0.46727
 Alpha  occ. eigenvalues --   -0.45860  -0.45268  -0.44778  -0.43843  -0.43467
 Alpha  occ. eigenvalues --   -0.42611  -0.41969  -0.41788  -0.40389  -0.39552
 Alpha  occ. eigenvalues --   -0.39275  -0.38470  -0.36855  -0.36724  -0.35790
 Alpha  occ. eigenvalues --   -0.35623  -0.34888  -0.34525  -0.33824  -0.33226
 Alpha  occ. eigenvalues --   -0.32855  -0.31728  -0.31004  -0.30632  -0.29998
 Alpha  occ. eigenvalues --   -0.29879  -0.29234  -0.28712  -0.27696  -0.26948
 Alpha  occ. eigenvalues --   -0.26159
 Alpha virt. eigenvalues --   -0.02045  -0.01910  -0.01576  -0.00353   0.00407
 Alpha virt. eigenvalues --    0.01043   0.01884   0.02219   0.02853   0.03303
 Alpha virt. eigenvalues --    0.03995   0.04280   0.04591   0.05331   0.05686

 Mulliken atomic charges:
              1
     1  O   -0.550698
     2  C   -0.046889
     3  C    0.219031
     4  O   -0.568077
     5  H    0.351904
     6  C    0.031045
     7  O   -0.585088
     8  H    0.418674
     9  C   -0.267160
    10  O   -0.526790
    11  H    0.340234
    12  C    0.128217
    13  O   -0.219596
    14  C    0.240406
    15  O   -0.278863
    16  C    0.120753
    17  C    0.188901
    18  O   -0.591466
    19  H    0.405332
    20  C    0.104259
    21  O   -0.522092
    22  H    0.329045
    23  C   -0.180628
    24  O   -0.574401
    25  H    0.353747
    26  C   -0.171017
    27  O   -0.206546
    28  C    0.094737
    29  O   -0.524861
    30  H    0.351277
    31  H    0.332156
    32  H    0.145289
    33  H    0.126946
    34  H    0.147895
    35  H    0.109979
    36  H    0.122818
    37  H    0.141662
    38  H    0.130593
    39  H    0.124646
    40  H    0.134662
    41  H    0.115083
    42  H    0.146117
    43  H    0.143808
    44  H    0.111921
    45  H    0.103035
 Sum of Mulliken atomic charges =   0.00000

 Dipole moment (field-independent basis, Debye):
    X=             -2.5594    Y=             -1.0724    Z=              1.3639  Tot=              3.0920
 Quadrupole moment (field-independent basis, Debye-Ang):
   XX=           -118.7765   YY=           -139.3696   ZZ=           -139.0092
   XY=            -15.0915   XZ=              0.9540   YZ=             -2.2301

  Exact polarizability: 235.553   1.008 198.156   0.397  -0.957 144.013
 Approx polarizability: 276.788  -0.044 258.016   0.381  -0.777 239.424

 ******    6 imaginary frequencies (negative Signs) ******

                     1                      2                      3
                     A                      A                      A
 Frequencies --  -273.6466              -248.3274              -190.6524
 Red. masses --     1.7354                 1.8541                 1.2190
 Frc consts  --     0.0766                 0.0674                 0.0261
 IR Inten    --     7.8403                 8.5847                63.3144
 Raman Activ --     0.0551                 0.0643                 0.9780

                     4                      5                      6
                     A                      A                      A
 Frequencies --  -187.8937               -65.9339               -45.5224
 Red. masses --     1.2413                 6.9711                 6.2460
 Frc consts  --     0.0258                 0.0179                 0.0076
 IR Inten    --   126.3394                 1.9554                 0.7207
 Raman Activ --     0.4543                 0.0222                 0.0287

                     7                      8                      9
                     A                      A                      A
 Frequencies --    40.2462                53.3001                58.9932
 Red. masses --     6.2027                 6.3686                 6.0134
 Frc consts  --     0.0059                 0.0107                 0.0123
 IR Inten    --     0.2933                 1.1247                 8.3722
 Raman Activ --     0.0327                 0.0419                 0.0521

                    10                     11                     12
                     A                      A                      A
 Frequencies --    79.9262                97.3516               104.7203
 Red. masses --     5.9386                 6.4450                 5.8410
 Frc consts  --     0.0224                 0.0360                 0.0377
 IR Inten    --     3.8766                 2.3737                 3.1150
 Raman Activ --     0.3806                 0.0516                 0.1035

                    13                     14                     15
                     A                      A                      A
 Frequencies --   138.1626               162.0448               178.4436
 Red. masses --     6.2122                 6.4131                 6.4920
 Frc consts  --     0.0699                 0.0992                 0.1218
 IR Inten    --     6.1468                 1.9883                 0.1930
 Raman Activ --     0.3521                 0.2302                 0.2540

                    16                     17                     18
                     A                      A                      A
 Frequencies --   198.2439               233.5442               247.0783
 Red. masses --     7.0380                 5.7378                 4.3233
 Frc consts  --     0.1630                 0.1844                 0.1555
 IR Inten    --     0.2255                 1.0574                15.1127
 Raman Activ --     2.5907                 0.8978                 0.2792

                    19                     20                     21
                     A                      A                      A
 Frequencies --   268.0336               290.6084               302.2896
 Red. masses --     5.0954                 5.2870                 5.2420
 Frc consts  --     0.2157                 0.2631                 0.2822
 IR Inten    --     1.4379                 2.7353                 2.1141
 Raman Activ --     0.2929                 0.2548                 0.8805

                    22                     23                     24
                     A                      A                      A
 Frequencies --   315.9134               319.9906               322.1175
 Red. masses --     5.7763                 5.2218                 5.8974
 Frc consts  --     0.3397                 0.3150                 0.3605
 IR Inten    --     6.8374                 2.8792                 2.0397
 Raman Activ --     1.8562                 1.2392                 2.5768

                    25                     26                     27
                     A                      A                      A
 Frequencies --   333.0906               362.2905               371.1009
 Red. masses --     5.9535                 4.5348                 5.8368
 Frc consts  --     0.3892                 0.3507                 0.4736
 IR Inten    --     8.2062                 5.1330                 3.0670
 Raman Activ --     5.0693                 0.0149                 0.3720

                    28                     29                     30
                     A                      A                      A
 Frequencies --   391.8447               406.3237               438.8004
 Red. masses --     5.3176                 6.0290                 4.4518
 Frc consts  --     0.4811                 0.5865                 0.5050
 IR Inten    --    13.1124                 7.4721                 2.4604
 Raman Activ --     3.0508                 5.5075                 0.9288

                    31                     32                     33
                     A                      A                      A
 Frequencies --   442.5922               467.3286               483.1588
 Red. masses --     5.3392                 4.8372                 3.9426
 Frc consts  --     0.6162                 0.6224                 0.5423
 IR Inten    --     1.4504                 2.7440                12.5330
 Raman Activ --     3.8204                 4.4451                 1.5079

                    34                     35                     36
                     A                      A                      A
 Frequencies --   506.8800               527.7503               564.5772
 Red. masses --     3.4052                 3.9707                 4.0030
 Frc consts  --     0.5155                 0.6516                 0.7518
 IR Inten    --     4.7486                 5.0556                16.4520
 Raman Activ --     4.7436                 1.0178                 1.5843

                    37                     38                     39
                     A                      A                      A
 Frequencies --   575.8987               585.8293               616.5213
 Red. masses --     2.8023                 4.8153                 4.5877
 Frc consts  --     0.5476                 0.9737                 1.0274
 IR Inten    --    42.9382                 7.7119                 3.9960
 Raman Activ --     0.3998                 0.5610                 0.4121

                    40                     41                     42
                     A                      A                      A
 Frequencies --   633.0635               684.2898               709.3652
 Red. masses --     5.0245                 5.5906                 1.0791
 Frc consts  --     1.1864                 1.5424                 0.3199
 IR Inten    --    51.5324                12.1856                95.8605
 Raman Activ --     1.9869                 1.1959                 1.7383

                    43                     44                     45
                     A                      A                      A
 Frequencies --   739.9779               760.3421               763.1124
 Red. masses --     1.0704                 1.0996                 1.0557
 Frc consts  --     0.3453                 0.3745                 0.3622
 IR Inten    --   114.4956                97.4824                91.2270
 Raman Activ --     1.6729                 1.7821                 1.4518

                    46                     47                     48
                     A                      A                      A
 Frequencies --   814.0779               835.1679               842.3631
 Red. masses --     1.0714                 1.1060                 1.7312
 Frc consts  --     0.4183                 0.4545                 0.7237
 IR Inten    --    82.7861                75.4600                 6.6081
 Raman Activ --     0.7166                 1.6410                 0.5132

                    49                     50                     51
                     A                      A                      A
 Frequencies --   873.0168               909.1913               951.5011
 Red. masses --     1.7479                 6.6453                 6.0072
 Frc consts  --     0.7849                 3.2365                 3.2043
 IR Inten    --    12.5702               115.8624               103.7098
 Raman Activ --     0.3279                 1.7980                 0.7898

                    52                     53                     54
                     A                      A                      A
 Frequencies --   959.4696               982.3133               983.5671
 Red. masses --     6.3818                 4.9674                 4.7741
 Frc consts  --     3.4614                 2.8241                 2.7211
 IR Inten    --   124.7921                15.9098                60.1614
 Raman Activ --     0.8475                 1.4584                 2.5926

                    55                     56                     57
                     A                      A                      A
 Frequencies --  1005.2881              1007.3394              1020.9030
 Red. masses --     6.6916                 5.8285                 5.7464
 Frc consts  --     3.9844                 3.4846                 3.5287
 IR Inten    --   409.6641                47.5484               108.5097
 Raman Activ --     1.1830                 6.1214                 2.8952

                    58                     59                     60
                     A                      A                      A
 Frequencies --  1044.5318              1059.4285              1063.8872
 Red. masses --     5.6289                 3.8454                 4.2490
 Frc consts  --     3.6184                 2.5430                 2.8335
 IR Inten    --   339.0144                43.2691                11.2281
 Raman Activ --     1.9380                10.0281                 9.5867

                    61                     62                     63
                     A                      A                      A
 Frequencies --  1067.6862              1076.2671              1079.9423
 Red. masses --     6.8287                 4.1497                 6.4130
 Frc consts  --     4.5865                 2.8321                 4.4067
 IR Inten    --   164.5341                40.1091                11.2990
 Raman Activ --     0.6235                19.3690                 0.6049

                    64                     65                     66
                     A                      A                      A
 Frequencies --  1098.7298              1103.7534              1105.4124
 Red. masses --     2.5019                 2.4280                 2.8460
 Frc consts  --     1.7795                 1.7428                 2.0489
 IR Inten    --    79.0603                21.5569                 5.1615
 Raman Activ --     3.1527                 7.7616                 8.2648

                    67                     68                     69
                     A                      A                      A
 Frequencies --  1119.1926              1120.1286              1135.5422
 Red. masses --     2.9694                 3.2694                 2.8670
 Frc consts  --     2.1914                 2.4169                 2.1781
 IR Inten    --    45.9159                36.9571                12.3539
 Raman Activ --     1.1718                 3.3252                 7.2925

                    70                     71                     72
                     A                      A                      A
 Frequencies --  1142.0488              1150.5829              1165.9082
 Red. masses --     1.9803                 2.4675                 1.5064
 Frc consts  --     1.5218                 1.9246                 1.2065
 IR Inten    --     2.4963                52.1344                 9.8863
 Raman Activ --     4.2933                 3.8838                 2.1876

                    73                     74                     75
                     A                      A                      A
 Frequencies --  1167.4592              1170.9722              1185.6363
 Red. masses --     2.1940                 1.9951                 1.6476
 Frc consts  --     1.7618                 1.6118                 1.3646
 IR Inten    --    23.5843                13.6195                 5.2359
 Raman Activ --     4.0849                 4.8569                 1.7035

                    76                     77                     78
                     A                      A                      A
 Frequencies --  1200.6041              1219.5189              1231.6382
 Red. masses --     1.3015                 1.2942                 1.1460
 Frc consts  --     1.1053                 1.1340                 1.0242
 IR Inten    --    10.3387                13.4812                 1.9407
 Raman Activ --     2.1899                 3.0591                 2.2887

                    79                     80                     81
                     A                      A                      A
 Frequencies --  1233.9287              1243.1780              1253.4217
 Red. masses --     1.2331                 1.2505                 1.3839
 Frc consts  --     1.1062                 1.1387                 1.2810
 IR Inten    --     4.5415                14.9948                 5.3078
 Raman Activ --     2.0108                 0.7385                 1.0807

                    82                     83                     84
                     A                      A                      A
 Frequencies --  1275.0670              1282.0012              1289.0645
 Red. masses --     1.3277                 1.2828                 1.2996
 Frc consts  --     1.2718                 1.2422                 1.2724
 IR Inten    --     9.5639                20.6175                 9.8093
 Raman Activ --     2.8266                 1.3947                 1.4174

                    85                     86                     87
                     A                      A                      A
 Frequencies --  1297.7172              1298.4389              1307.8607
 Red. masses --     1.2432                 1.4091                 1.1929
 Frc consts  --     1.2336                 1.3997                 1.2023
 IR Inten    --    20.0049                17.1356                 6.9944
 Raman Activ --     7.2728                 3.2251                 2.6386

                    88                     89                     90
                     A                      A                      A
 Frequencies --  1314.3319              1321.9101              1328.3540
 Red. masses --     1.3545                 1.2683                 1.2599
 Frc consts  --     1.3786                 1.3058                 1.3099
 IR Inten    --    19.6652                28.8176                 5.1020
 Raman Activ --     3.6187                 5.6323                 6.5529

                    91                     92                     93
                     A                      A                      A
 Frequencies --  1335.0005              1351.2881              1355.1627
 Red. masses --     1.2184                 1.2162                 1.1908
 Frc consts  --     1.2794                 1.3084                 1.2885
 IR Inten    --    55.3572                56.6827                 1.2825
 Raman Activ --     0.9319                 7.7489                 2.6289

                    94                     95                     96
                     A                      A                      A
 Frequencies --  1359.1892              1370.3774              1380.7145
 Red. masses --     1.6454                 1.3224                 1.2500
 Frc consts  --     1.7909                 1.4632                 1.4040
 IR Inten    --     0.4281                 5.0236                36.3090
 Raman Activ --     6.5301                 3.7518                 4.4782

                    97                     98                     99
                     A                      A                      A
 Frequencies --  1381.5412              1392.7707              1400.4497
 Red. masses --     1.4989                 1.3685                 1.3949
 Frc consts  --     1.6856                 1.5641                 1.6118
 IR Inten    --     5.9098                 2.5656                 5.2833
 Raman Activ --     5.6568                 6.0008                 5.8073

                   100                    101                    102
                     A                      A                      A
 Frequencies --  1436.5191              1457.3475              1464.8991
 Red. masses --     1.3103                 1.4621                 1.3201
 Frc consts  --     1.5931                 1.8296                 1.6690
 IR Inten    --    30.5426                36.4958                46.0962
 Raman Activ --     0.6099                 1.2150                 2.9117

                   103                    104                    105
                     A                      A                      A
 Frequencies --  1467.9347              1469.2644              1479.8776
 Red. masses --     1.3265                 1.1034                 1.0987
 Frc consts  --     1.6841                 1.4034                 1.4177
 IR Inten    --    24.9673                 3.4287                 8.1203
 Raman Activ --     2.8714                 4.5927                 2.8652

                   106                    107                    108
                     A                      A                      A
 Frequencies --  1480.2331              1497.9342              3239.1894
 Red. masses --     1.3057                 1.2823                 1.0779
 Frc consts  --     1.6856                 1.6953                 6.6634
 IR Inten    --    32.0483                44.6306                19.6581
 Raman Activ --     0.9648                 2.3661               110.9664

                   109                    110                    111
                     A                      A                      A
 Frequencies --  3256.5504              3257.1904              3263.2993
 Red. masses --     1.0612                 1.0582                 1.0720
 Frc consts  --     6.6305                 6.6143                 6.7260
 IR Inten    --    54.6743                28.7680               258.2463
 Raman Activ --    21.4418                89.6439               180.2630

                   112                    113                    114
                     A                      A                      A
 Frequencies --  3266.4512              3269.5981              3272.6788
 Red. masses --     1.0794                 1.0806                 1.0791
 Frc consts  --     6.7855                 6.8062                 6.8094
 IR Inten    --   188.0863                26.0956               157.7108
 Raman Activ --    75.0507                37.6375               289.9938

                   115                    116                    117
                     A                      A                      A
 Frequencies --  3278.5191              3284.5442              3284.9306
 Red. masses --     1.0816                 1.0800                 1.0851
 Frc consts  --     6.8500                 6.8650                 6.8986
 IR Inten    --    69.1026               527.3750                52.8416
 Raman Activ --    33.5429                63.2135                73.1740

                   118                    119                    120
                     A                      A                      A
 Frequencies --  3285.3900              3289.9051              3297.7998
 Red. masses --     1.0814                 1.0846                 1.0860
 Frc consts  --     6.8773                 6.9167                 6.9588
 IR Inten    --   236.0793                88.3349                77.0642
 Raman Activ --    20.8020                86.6601                44.0145

                   121                    122                    123
                     A                      A                      A
 Frequencies --  3304.6666              3312.3983              3315.8936
 Red. masses --     1.0866                 1.1041                 1.1062
 Frc consts  --     6.9916                 7.1378                 7.1662
 IR Inten    --    55.3300                60.0728                46.5161
 Raman Activ --    11.7270                27.4880                37.0558

                   124                    125                    126
                     A                      A                      A
 Frequencies --  3363.3308              3364.2352              3374.0687
 Red. masses --     1.0653                 1.0682                 1.0670
 Frc consts  --     7.0999                 7.1229                 7.1570
 IR Inten    --    40.1855                60.2767                67.2832
 Raman Activ --    59.2150               175.6783               125.9528

                   127                    128                    129
                     A                      A                      A
 Frequencies --  3376.6402              3890.7659              3891.4419
 Red. masses --     1.0651                 1.0677                 1.0675
 Frc consts  --     7.1552                 9.5229                 9.5244
 IR Inten    --    25.1471               100.0569                65.0404
 Raman Activ --   132.1101                66.9512               131.7242

 - Thermochemistry -
 -------------------
 Temperature   298.150 Kelvin.  Pressure   1.00000 Atm.
 Atom     1 has atomic number  8 and mass  15.99491

 Molecular mass:   342.11621 amu.
 Principal axes and moments of inertia in atomic units:
                           1         2         3
     Eigenvalues --  4459.70161********************
           X            0.99997  -0.00735   0.00039
           Y            0.00735   0.99997  -0.00330
           Z           -0.00036   0.00330   0.99999
 This molecule is an asymmetric top.
 Rotational symmetry number  1.
 Warning -- assumption of classical behavior for rotation
           may cause significant error
 Rotational temperatures (Kelvin)      0.01942     0.00691     0.00521
 Rotational constants (GHZ):           0.40468     0.14400     0.10860
    6 imaginary frequencies ignored.
 Zero-point vibrational energy     974558.6 (Joules/Mol)
                                  232.92510 (Kcal/Mol)
 Warning -- explicit consideration of  33 degrees of freedom as
           vibrations may cause significant error
 Vibrational temperatures:     57.91    76.69    84.88   115.00   140.07
          (Kelvin)            150.67   198.78   233.15   256.74   285.23
                              336.02   355.49   385.64   418.12   434.93
                              454.53   460.39   463.45   479.24   521.25
                              533.93   563.78   584.61   631.34   636.79
                              672.38   695.16   729.29   759.31   812.30
                              828.59   842.88   887.04   910.84   984.54
                             1020.62  1064.66  1093.96  1097.95  1171.28
                             1201.62  1211.97  1256.07  1308.12  1369.00
                             1380.46  1413.33  1415.13  1446.38  1449.33
                             1468.85  1502.85  1524.28  1530.69  1536.16
                             1548.51  1553.79  1580.83  1588.05  1590.44
                             1610.27  1611.61  1633.79  1643.15  1655.43
                             1677.48  1679.71  1684.77  1705.86  1727.40
                             1754.61  1772.05  1775.35  1788.65  1803.39
                             1834.53  1844.51  1854.67  1867.12  1868.16
                             1881.72  1891.03  1901.93  1911.20  1920.77
                             1944.20  1949.77  1955.57  1971.67  1986.54
                             1987.73  2003.88  2014.93  2066.83  2096.80
                             2107.66  2112.03  2113.94  2129.21  2129.72
                             2155.19  4660.47  4685.44  4686.36  4695.15
                             4699.69  4704.22  4708.65  4717.05  4725.72
                             4726.28  4726.94  4733.43  4744.79  4754.67
                             4765.80  4770.83  4839.08  4840.38  4854.53
                             4858.23  5597.94  5598.91

 Zero-point correction=                           0.371190 (Hartree/Particle)
 Thermal correction to Energy=                    0.390505
 Thermal correction to Enthalpy=                  0.391449
 Thermal correction to Gibbs Free Energy=         0.323809
 Sum of electronic and zero-point Energies=          -1297.617739
 Sum of electronic and thermal Energies=             -1297.598423
 Sum of electronic and thermal Enthalpies=           -1297.597479
 Sum of electronic and thermal Free Energies=        -1297.665119

                     E (Thermal)             CV                S
                      KCal/Mol        Cal/Mol-Kelvin    Cal/Mol-Kelvin
 Total                  245.046             77.934            142.360
 Electronic               0.000              0.000              0.000
 Translational            0.889              2.981             43.384
 Rotational               0.889              2.981             35.184
 Vibrational            243.268             71.972             63.792
 Vibration     1          0.594              1.981              5.247
 Vibration     2          0.596              1.976              4.691
 Vibration     3          0.596              1.974              4.491
 Vibration     4          0.600              1.963              3.893
 Vibration     5          0.603              1.951              3.507
 Vibration     6          0.605              1.945              3.365
 Vibration     7          0.614              1.915              2.829
 Vibration     8          0.622              1.889              2.526
 Vibration     9          0.629              1.869              2.345
 Vibration    10          0.637              1.842              2.149
 Vibration    11          0.654              1.790              1.852
 Vibration    12          0.661              1.768              1.751
 Vibration    13          0.673              1.732              1.609
 Vibration    14          0.687              1.691              1.470
 Vibration    15          0.694              1.669              1.404
 Vibration    16          0.703              1.643              1.331
 Vibration    17          0.706              1.635              1.310
 Vibration    18          0.707              1.631              1.299
 Vibration    19          0.715              1.609              1.245
 Vibration    20          0.736              1.550              1.112
 Vibration    21          0.743              1.532              1.075
 Vibration    22          0.759              1.488              0.993
 Vibration    23          0.771              1.456              0.940
 Vibration    24          0.799              1.386              0.830
 Vibration    25          0.802              1.377              0.819
 Vibration    26          0.825              1.323              0.745
 Vibration    27          0.839              1.287              0.702
 Vibration    28          0.862              1.235              0.641
 Vibration    29          0.883              1.189              0.592
 Vibration    30          0.920              1.108              0.515
 Vibration    31          0.932              1.083              0.493
 Vibration    32          0.943              1.062              0.475
 Vibration    33          0.976              0.997              0.422

 Normal termination of Gaussian 09 at Mon Mar 21 22:47:37 2016.
