 Gaussian 09, Revision B.01,
 Gaussian 09:  EM64L-G09RevB.01 12-Aug-2010

 -------------------------------------------------
 # freq=raman b3lyp/6-31+g(2d,p) geom=connectivity
 -------------------------------------------------

 -----------------
 280 5605/5605.com
 -----------------
 Symbolic Z-matrix:
 Charge =  0 Multiplicity = 1

                         Standard orientation:
 ---------------------------------------------------------------------
 Center     Atomic      Atomic             Coordinates (Angstroms)
 Number     Number       Type             X           Y           Z
 ---------------------------------------------------------------------
      1          8           0        5.102128   -0.458160   -0.456546
      2          6           0        3.835464   -0.144306    0.141609
      3          6           0        3.284873    1.215027   -0.258793
      4          8           0        4.192991    2.323718   -0.205262
      5          1           0        5.103353    1.915215   -0.275827
      6          6           0        1.924310    1.570602    0.318452
      7          8           0        1.366932    2.696275   -0.376787
      8          1           0        0.464728    2.731069    0.052888
      9          6           0        3.046074   -2.560106    0.311136
     10          8           0        4.143991   -3.315446   -0.219835
     11          1           0        3.866736   -4.256843   -0.026791
     12          6           0        2.795271   -1.175307   -0.263643
     13          8           0        1.490553   -0.843175    0.232597
     14          6           0        0.935015    0.460873    0.006072
     15          8           0       -0.309682    0.541236    0.716216
     16          6           0       -1.504835    0.231365   -0.013791
     17          6           0       -2.118353   -1.065092    0.488485
     18          8           0       -1.175160   -2.076437    0.102965
     19          1           0       -0.278931   -1.686485    0.315102
     20          6           0       -3.415476   -1.458639   -0.198781
     21          8           0       -4.008040   -2.677812    0.272784
     22          1           0       -4.911230   -2.844640   -0.122288
     23          6           0       -2.205375    2.605742   -0.133963
     24          8           0       -1.119066    3.264643    0.531691
     25          1           0       -1.272036    4.250505    0.454229
     26          6           0       -2.640701    1.204248    0.261413
     27          8           0       -3.912963    0.896683   -0.326148
     28          6           0       -4.456308   -0.377859    0.045815
     29          8           0       -5.485575   -0.625019   -0.923737
     30          1           0       -6.296032   -0.874274   -0.473592
     31          1           0        5.729664   -0.696873    0.229613
     32          1           0       -3.062386    3.237994   -0.030580
     33          1           0       -1.957671    2.572182   -1.174355
     34          1           0       -2.787223    1.212192    1.321303
     35          1           0       -1.304554    0.171771   -1.063189
     36          1           0       -2.239242   -1.044613    1.551437
     37          1           0       -3.239875   -1.541574   -1.251010
     38          1           0       -4.830484   -0.387506    1.048212
     39          1           0        2.155979   -3.136951    0.170139
     40          1           0        3.204727   -2.451594    1.363730
     41          1           0        2.760328   -1.238425   -1.331208
     42          1           0        3.945281   -0.168593    1.205682
     43          1           0        3.091336    1.101957   -1.305052
     44          1           0        1.981982    1.753983    1.371042
     45          1           0        0.706923    0.530189   -1.037034
 ---------------------------------------------------------------------

 SCF Done:  E(RB3LYP) =  -1297.97559444     A.U. after   13 cycles

 The electronic state is 1-A.
 Alpha  occ. eigenvalues --  -19.19281 -19.18893 -19.18253 -19.18215 -19.17884
 Alpha  occ. eigenvalues --  -19.17607 -19.16393 -19.16002 -19.15262 -19.13707
 Alpha  occ. eigenvalues --  -19.13560 -10.30630 -10.30602 -10.26069 -10.25878
 Alpha  occ. eigenvalues --  -10.25720 -10.25689 -10.25041 -10.24627 -10.24576
 Alpha  occ. eigenvalues --  -10.24190 -10.24183 -10.23954  -1.09985  -1.09229
 Alpha  occ. eigenvalues --   -1.05817  -1.05466  -1.04367  -1.03705  -1.03016
 Alpha  occ. eigenvalues --   -1.02607  -1.02386  -1.00865  -1.00486  -0.82691
 Alpha  occ. eigenvalues --   -0.80581  -0.79107  -0.78528  -0.71831  -0.69945
 Alpha  occ. eigenvalues --   -0.67725  -0.65095  -0.62819  -0.62491  -0.61648
 Alpha  occ. eigenvalues --   -0.60222  -0.56683  -0.56060  -0.55392  -0.55195
 Alpha  occ. eigenvalues --   -0.54358  -0.53213  -0.52960  -0.51672  -0.50960
 Alpha  occ. eigenvalues --   -0.50863  -0.50094  -0.49600  -0.48613  -0.46816
 Alpha  occ. eigenvalues --   -0.45929  -0.45248  -0.44229  -0.43643  -0.43210
 Alpha  occ. eigenvalues --   -0.42893  -0.42344  -0.41201  -0.40516  -0.39177
 Alpha  occ. eigenvalues --   -0.38704  -0.38381  -0.37722  -0.36855  -0.36231
 Alpha  occ. eigenvalues --   -0.36057  -0.34961  -0.34848  -0.34455  -0.34186
 Alpha  occ. eigenvalues --   -0.32982  -0.31142  -0.30803  -0.30353  -0.30133
 Alpha  occ. eigenvalues --   -0.29236  -0.28844  -0.28500  -0.27353  -0.26920
 Alpha  occ. eigenvalues --   -0.25974
 Alpha virt. eigenvalues --   -0.02152  -0.01973  -0.01889  -0.00280   0.00217
 Alpha virt. eigenvalues --    0.00944   0.01773   0.02181   0.03166   0.03528
 Alpha virt. eigenvalues --    0.04030   0.04119   0.04775   0.05367   0.05625

 Mulliken atomic charges:
              1
     1  O   -0.524913
     2  C   -0.221994
     3  C    0.334455
     4  O   -0.571682
     5  H    0.342744
     6  C   -0.006454
     7  O   -0.544870
     8  H    0.421602
     9  C   -0.254511
    10  O   -0.516322
    11  H    0.333006
    12  C    0.220104
    13  O   -0.272362
    14  C    0.200367
    15  O   -0.231932
    16  C    0.043843
    17  C    0.236955
    18  O   -0.580023
    19  H    0.378634
    20  C    0.123890
    21  O   -0.562129
    22  H    0.334118
    23  C   -0.324654
    24  O   -0.553772
    25  H    0.362130
    26  C    0.027036
    27  O   -0.278633
    28  C    0.126442
    29  O   -0.537784
    30  H    0.333490
    31  H    0.342580
    32  H    0.139906
    33  H    0.155899
    34  H    0.121183
    35  H    0.128201
    36  H    0.130036
    37  H    0.137087
    38  H    0.141112
    39  H    0.146090
    40  H    0.137233
    41  H    0.117109
    42  H    0.112430
    43  H    0.106639
    44  H    0.127499
    45  H    0.120213
 Sum of Mulliken atomic charges =   0.00000

 Dipole moment (field-independent basis, Debye):
    X=             -2.7372    Y=             -0.1996    Z=              2.6931  Tot=              3.8451
 Quadrupole moment (field-independent basis, Debye-Ang):
   XX=           -115.4427   YY=           -138.4745   ZZ=           -140.5910
   XY=            -13.0834   XZ=              4.5244   YZ=              1.3905

  Exact polarizability: 235.342   2.520 196.036   0.532  -0.333 143.657
 Approx polarizability: 276.867   2.639 255.681  -0.314   0.285 238.498

 ******    7 imaginary frequencies (negative Signs) ******

                     1                      2                      3
                     A                      A                      A
 Frequencies --  -283.6944              -264.9673              -213.1628
 Red. masses --     1.7268                 1.7176                 1.2266
 Frc consts  --     0.0819                 0.0711                 0.0328
 IR Inten    --     3.3341                19.9202               113.3815
 Raman Activ --     0.0274                 0.1539                 1.0360

                     4                      5                      6
                     A                      A                      A
 Frequencies --  -204.4497               -80.2265               -63.9276
 Red. masses --     1.2300                 6.5435                 6.7380
 Frc consts  --     0.0303                 0.0248                 0.0162
 IR Inten    --    90.2976                 1.5148                 0.0356
 Raman Activ --     0.6437                 0.0411                 0.0403

                     7                      8                      9
                     A                      A                      A
 Frequencies --   -48.2883                32.5903                57.8988
 Red. masses --     6.1392                 6.8394                 6.8523
 Frc consts  --     0.0084                 0.0043                 0.0135
 IR Inten    --     0.3075                 0.3070                 0.3792
 Raman Activ --     0.0227                 0.0331                 0.0368

                    10                     11                     12
                     A                      A                      A
 Frequencies --    76.6556                91.3590               110.8252
 Red. masses --     5.7826                 6.4669                 5.7067
 Frc consts  --     0.0200                 0.0318                 0.0413
 IR Inten    --     2.6853                 0.9560                 0.3439
 Raman Activ --     0.2649                 0.1430                 0.1016

                    13                     14                     15
                     A                      A                      A
 Frequencies --   144.1748               177.4053               186.0712
 Red. masses --     6.2667                 6.0605                 7.9186
 Frc consts  --     0.0767                 0.1124                 0.1615
 IR Inten    --     5.1139                 2.9486                 2.1998
 Raman Activ --     0.3538                 0.1901                 0.9037

                    16                     17                     18
                     A                      A                      A
 Frequencies --   201.4484               224.3252               250.4073
 Red. masses --     6.9117                 5.5629                 4.1708
 Frc consts  --     0.1653                 0.1649                 0.1541
 IR Inten    --     0.3541                 1.6580                14.2394
 Raman Activ --     2.4987                 0.6065                 0.2169

                    19                     20                     21
                     A                      A                      A
 Frequencies --   266.1429               291.2062               299.3757
 Red. masses --     4.5479                 5.7376                 4.6063
 Frc consts  --     0.1898                 0.2867                 0.2432
 IR Inten    --     1.2139                 0.9036                 2.3920
 Raman Activ --     0.1316                 0.3810                 0.3035

                    22                     23                     24
                     A                      A                      A
 Frequencies --   308.4088               322.8384               327.9978
 Red. masses --     6.4895                 4.8767                 5.8551
 Frc consts  --     0.3637                 0.2995                 0.3711
 IR Inten    --     3.8492                 3.5352                 6.6613
 Raman Activ --     2.3285                 1.9464                 2.0164

                    25                     26                     27
                     A                      A                      A
 Frequencies --   341.3437               357.4773               375.8731
 Red. masses --     6.9072                 4.8883                 6.9126
 Frc consts  --     0.4742                 0.3681                 0.5754
 IR Inten    --     8.6808                 6.6362                 1.4941
 Raman Activ --     3.5135                 0.1454                 1.2288

                    28                     29                     30
                     A                      A                      A
 Frequencies --   392.3992               411.2748               435.6901
 Red. masses --     3.9624                 7.0994                 5.3234
 Frc consts  --     0.3595                 0.7075                 0.5954
 IR Inten    --    21.0199                 2.2318                 1.1002
 Raman Activ --     2.5144                 4.8349                 4.6161

                    31                     32                     33
                     A                      A                      A
 Frequencies --   446.9539               470.2954               486.7040
 Red. masses --     5.1068                 4.7245                 3.5871
 Frc consts  --     0.6011                 0.6157                 0.5006
 IR Inten    --     2.7742                 2.9424                11.4028
 Raman Activ --     0.7341                 2.2107                 3.8669

                    34                     35                     36
                     A                      A                      A
 Frequencies --   525.9394               535.6822               574.4397
 Red. masses --     4.5101                 3.0454                 3.3851
 Frc consts  --     0.7350                 0.5149                 0.6581
 IR Inten    --     7.8520                 1.6390                32.6670
 Raman Activ --     1.2688                 3.4575                 1.4880

                    37                     38                     39
                     A                      A                      A
 Frequencies --   589.1205               610.3154               610.9704
 Red. masses --     3.4912                 5.3788                 5.4322
 Frc consts  --     0.7139                 1.1804                 1.1947
 IR Inten    --    15.6762                 8.9554                36.1702
 Raman Activ --     0.2880                 0.7845                 0.8923

                    40                     41                     42
                     A                      A                      A
 Frequencies --   634.8159               666.1070               702.8238
 Red. masses --     4.0982                 5.4531                 1.0476
 Frc consts  --     0.9731                 1.4255                 0.3049
 IR Inten    --    15.1213                12.5177                83.9925
 Raman Activ --     0.6576                 0.6011                 1.7879

                    43                     44                     45
                     A                      A                      A
 Frequencies --   721.5486               723.5914               728.0021
 Red. masses --     1.0738                 1.0864                 1.0802
 Frc consts  --     0.3294                 0.3351                 0.3373
 IR Inten    --    36.2122               141.6725               119.2565
 Raman Activ --     1.3257                 1.7236                 1.2900

                    46                     47                     48
                     A                      A                      A
 Frequencies --   843.7102               851.9632               862.1054
 Red. masses --     1.1367                 1.7867                 1.5380
 Frc consts  --     0.4767                 0.7641                 0.6735
 IR Inten    --    68.6739                 4.9271                 8.4116
 Raman Activ --     1.4738                 0.6109                 0.3860

                    49                     50                     51
                     A                      A                      A
 Frequencies --   905.2601               925.5787               952.2803
 Red. masses --     2.9352                 1.5139                 4.0526
 Frc consts  --     1.4172                 0.7641                 2.1653
 IR Inten    --   120.8852                89.5607                36.0133
 Raman Activ --     2.4084                 1.7126                 0.6566

                    52                     53                     54
                     A                      A                      A
 Frequencies --   980.8632               983.1635               984.1745
 Red. masses --     6.2935                 5.4529                 4.9464
 Frc consts  --     3.5675                 3.1055                 2.8228
 IR Inten    --    67.0940               336.8279                35.0120
 Raman Activ --     1.4181                 1.9095                 2.6050

                    55                     56                     57
                     A                      A                      A
 Frequencies --   990.4954              1009.0526              1024.9848
 Red. masses --     6.8576                 5.5080                 6.5075
 Frc consts  --     3.9639                 3.3042                 4.0281
 IR Inten    --   178.9052               114.0205               212.6097
 Raman Activ --     2.3875                 2.1922                 3.0691

                    58                     59                     60
                     A                      A                      A
 Frequencies --  1027.6185              1046.3340              1057.4819
 Red. masses --     5.4965                 5.1065                 3.8158
 Frc consts  --     3.4198                 3.2939                 2.5141
 IR Inten    --   284.2288                91.7793                35.9928
 Raman Activ --     1.9928                 4.5298                 6.8487

                    61                     62                     63
                     A                      A                      A
 Frequencies --  1065.5585              1070.2890              1077.2038
 Red. masses --     4.8737                 4.9999                 3.3324
 Frc consts  --     3.2604                 3.3745                 2.2783
 IR Inten    --    18.8369                83.8305                60.8430
 Raman Activ --     4.0732                 1.5003                19.0652

                    64                     65                     66
                     A                      A                      A
 Frequencies --  1093.3862              1097.0964              1099.9659
 Red. masses --     2.5360                 2.3814                 2.7722
 Frc consts  --     1.7863                 1.6887                 1.9762
 IR Inten    --    32.0689                27.4731                83.0551
 Raman Activ --     7.5458                 6.7164                 4.7570

                    67                     68                     69
                     A                      A                      A
 Frequencies --  1108.8146              1126.7880              1134.6766
 Red. masses --     2.8211                 2.2195                 2.2063
 Frc consts  --     2.0436                 1.6603                 1.6736
 IR Inten    --    34.2600                57.5361                 9.4117
 Raman Activ --     1.2113                 5.9010                 2.3901

                    70                     71                     72
                     A                      A                      A
 Frequencies --  1140.2287              1147.7844              1150.0573
 Red. masses --     2.6175                 1.8580                 2.9218
 Frc consts  --     2.0050                 1.4421                 2.2769
 IR Inten    --     7.7813                15.6145                 7.7474
 Raman Activ --     6.3531                 3.7781                 3.7537

                    73                     74                     75
                     A                      A                      A
 Frequencies --  1159.3449              1177.0666              1180.8943
 Red. masses --     2.0626                 1.6100                 1.5722
 Frc consts  --     1.6334                 1.3142                 1.2918
 IR Inten    --    14.0890                 1.9345                15.2801
 Raman Activ --     5.5757                 1.7508                 1.3592

                    76                     77                     78
                     A                      A                      A
 Frequencies --  1188.1022              1217.7881              1230.3732
 Red. masses --     1.6507                 1.3557                 1.2282
 Frc consts  --     1.3728                 1.1845                 1.0954
 IR Inten    --     4.6050                 9.3116                20.7023
 Raman Activ --     2.8951                 1.5801                 1.7262

                    79                     80                     81
                     A                      A                      A
 Frequencies --  1233.2725              1242.1859              1257.4587
 Red. masses --     1.4651                 1.3718                 1.2953
 Frc consts  --     1.3129                 1.2471                 1.2067
 IR Inten    --     4.4457                 9.4326                 6.4591
 Raman Activ --     1.3555                 1.0083                 2.4608

                    82                     83                     84
                     A                      A                      A
 Frequencies --  1271.4864              1274.4544              1285.3148
 Red. masses --     1.3397                 1.3625                 1.3101
 Frc consts  --     1.2761                 1.3039                 1.2752
 IR Inten    --    37.1340                 8.6100                57.6227
 Raman Activ --     1.8995                 3.3029                 4.8601

                    85                     86                     87
                     A                      A                      A
 Frequencies --  1294.8853              1297.8537              1305.6078
 Red. masses --     1.2271                 1.2919                 1.2057
 Frc consts  --     1.2122                 1.2821                 1.2109
 IR Inten    --     2.9772                 8.9970                16.3138
 Raman Activ --     3.8735                 6.2024                 3.2339

                    88                     89                     90
                     A                      A                      A
 Frequencies --  1318.4277              1319.4084              1323.7453
 Red. masses --     1.3746                 1.2873                 1.2257
 Frc consts  --     1.4078                 1.3203                 1.2654
 IR Inten    --    33.8667                 1.0403                 0.9300
 Raman Activ --     3.0753                 5.5330                 2.1368

                    91                     92                     93
                     A                      A                      A
 Frequencies --  1331.9380              1355.0788              1356.7984
 Red. masses --     1.2176                 1.2089                 1.3565
 Frc consts  --     1.2727                 1.3079                 1.4713
 IR Inten    --    42.3899                30.8323                 2.8564
 Raman Activ --    12.1695                 2.0711                 3.7127

                    94                     95                     96
                     A                      A                      A
 Frequencies --  1367.2179              1369.1814              1382.7187
 Red. masses --     1.2308                 1.4568                 1.4814
 Frc consts  --     1.3555                 1.6091                 1.6687
 IR Inten    --    24.8735                17.0047                12.9622
 Raman Activ --     2.4997                 5.3803                 5.6057

                    97                     98                     99
                     A                      A                      A
 Frequencies --  1390.8212              1394.6411              1405.1761
 Red. masses --     1.2732                 1.2449                 1.5843
 Frc consts  --     1.4511                 1.4266                 1.8431
 IR Inten    --    19.3180                 2.3265                21.6286
 Raman Activ --     3.8622                 1.9472                 0.8570

                   100                    101                    102
                     A                      A                      A
 Frequencies --  1414.4050              1460.6660              1471.6404
 Red. masses --     1.3678                 1.4162                 1.0737
 Frc consts  --     1.6122                 1.7803                 1.3700
 IR Inten    --     2.8838                58.9563                 3.7462
 Raman Activ --     6.2507                 1.1063                 4.6948

                   103                    104                    105
                     A                      A                      A
 Frequencies --  1472.8151              1479.2328              1497.4458
 Red. masses --     1.2597                 1.1456                 1.3256
 Frc consts  --     1.6100                 1.4769                 1.7513
 IR Inten    --    21.9992                 5.0851                40.2549
 Raman Activ --     3.1160                 2.4250                 0.8562

                   106                    107                    108
                     A                      A                      A
 Frequencies --  1518.6895              1542.2331              3249.4706
 Red. masses --     1.2366                 1.2226                 1.0688
 Frc consts  --     1.6804                 1.7133                 6.6490
 IR Inten    --    48.1417                68.6346               300.7841
 Raman Activ --     3.0614                 0.9117                34.1776

                   109                    110                    111
                     A                      A                      A
 Frequencies --  3251.9630              3255.9710              3262.2342
 Red. masses --     1.0724                 1.0589                 1.0739
 Frc consts  --     6.6819                 6.6140                 6.7333
 IR Inten    --   130.5286                27.6952               248.8299
 Raman Activ --    49.5927               134.6064               164.7252

                   112                    113                    114
                     A                      A                      A
 Frequencies --  3265.2953              3275.6752              3275.8039
 Red. masses --     1.0720                 1.0834                 1.0837
 Frc consts  --     6.7341                 6.8494                 6.8514
 IR Inten    --    86.2192                13.7887                 9.6211
 Raman Activ --    92.5460                 8.9794                98.4002

                   115                    116                    117
                     A                      A                      A
 Frequencies --  3285.3336              3289.2682              3291.6986
 Red. masses --     1.0836                 1.0861                 1.0853
 Frc consts  --     6.8908                 6.9237                 6.9286
 IR Inten    --    23.3965                11.3641                 3.0317
 Raman Activ --   151.7591                45.9090                75.0085

                   118                    119                    120
                     A                      A                      A
 Frequencies --  3296.5374              3298.1462              3306.0711
 Red. masses --     1.0871                 1.0864                 1.0901
 Frc consts  --     6.9601                 6.9626                 7.0200
 IR Inten    --    15.0883                57.2941                49.7606
 Raman Activ --    44.3608                16.6467                18.6279

                   121                    122                    123
                     A                      A                      A
 Frequencies --  3310.7798              3312.6857              3318.9916
 Red. masses --     1.0999                 1.1042                 1.0690
 Frc consts  --     7.1037                 7.1394                 6.9381
 IR Inten    --   114.3453                39.1011               402.8199
 Raman Activ --    38.7787                16.8787               155.5442

                   124                    125                    126
                     A                      A                      A
 Frequencies --  3361.6149              3366.0658              3368.4800
 Red. masses --     1.0654                 1.0678                 1.0673
 Frc consts  --     7.0936                 7.1283                 7.1350
 IR Inten    --    37.4211                71.2395                38.3911
 Raman Activ --    93.7626               136.1631               126.7572

                   127                    128                    129
                     A                      A                      A
 Frequencies --  3369.6426              3890.2373              3891.6800
 Red. masses --     1.0660                 1.0674                 1.0676
 Frc consts  --     7.1317                 9.5174                 9.5269
 IR Inten    --    39.2097                70.5365                81.1325
 Raman Activ --   152.6997               118.0350                92.2118

 - Thermochemistry -
 -------------------
 Temperature   298.150 Kelvin.  Pressure   1.00000 Atm.
 Atom     1 has atomic number  8 and mass  15.99491

 Molecular mass:   342.11621 amu.
 Principal axes and moments of inertia in atomic units:
                           1         2         3
     Eigenvalues --  4382.37914********************
           X            0.99998  -0.00667   0.00063
           Y            0.00667   0.99998  -0.00189
           Z           -0.00061   0.00190   1.00000
 This molecule is an asymmetric top.
 Rotational symmetry number  1.
 Warning -- assumption of classical behavior for rotation
           may cause significant error
 Rotational temperatures (Kelvin)      0.01976     0.00683     0.00522
 Rotational constants (GHZ):           0.41182     0.14224     0.10872
    7 imaginary frequencies ignored.
 Zero-point vibrational energy     975252.2 (Joules/Mol)
                                  233.09086 (Kcal/Mol)
 Warning -- explicit consideration of  32 degrees of freedom as
           vibrations may cause significant error
 Vibrational temperatures:     46.89    83.30   110.29   131.45   159.45
          (Kelvin)            207.44   255.25   267.71   289.84   322.75
                              360.28   382.92   418.98   430.73   443.73
                              464.49   471.92   491.12   514.33   540.80
                              564.57   591.73   626.86   643.07   676.65
                              700.26   756.71   770.73   826.49   847.61
                              878.11   879.05   913.36   958.38  1011.21
                             1038.15  1041.09  1047.43  1213.91  1225.78
                             1240.38  1302.47  1331.70  1370.12  1411.24
                             1414.55  1416.01  1425.10  1451.80  1474.72
                             1478.51  1505.44  1521.48  1533.10  1539.91
                             1549.85  1573.14  1578.48  1582.60  1595.33
                             1621.19  1632.54  1640.53  1651.40  1654.67
                             1668.04  1693.53  1699.04  1709.41  1752.12
                             1770.23  1774.40  1787.23  1809.20  1829.38
                             1833.65  1849.28  1863.05  1867.32  1878.48
                             1896.92  1898.33  1904.57  1916.36  1949.65
                             1952.13  1967.12  1969.94  1989.42  2001.08
                             2006.57  2021.73  2035.01  2101.57  2117.36
                             2119.05  2128.28  2154.49  2185.05  2218.93
                             4675.26  4678.84  4684.61  4693.62  4698.03
                             4712.96  4713.15  4726.86  4732.52  4736.01
                             4742.98  4745.29  4756.69  4763.47  4766.21
                             4775.28  4836.61  4843.01  4846.49  4848.16
                             5597.18  5599.25

 Zero-point correction=                           0.371454 (Hartree/Particle)
 Thermal correction to Energy=                    0.389884
 Thermal correction to Enthalpy=                  0.390828
 Thermal correction to Gibbs Free Energy=         0.325369
 Sum of electronic and zero-point Energies=          -1297.604141
 Sum of electronic and thermal Energies=             -1297.585711
 Sum of electronic and thermal Enthalpies=           -1297.584767
 Sum of electronic and thermal Free Energies=        -1297.650226

                     E (Thermal)             CV                S
                      KCal/Mol        Cal/Mol-Kelvin    Cal/Mol-Kelvin
 Total                  244.656             75.832            137.771
 Electronic               0.000              0.000              0.000
 Translational            0.889              2.981             43.384
 Rotational               0.889              2.981             35.178
 Vibrational            242.878             69.870             59.209
 Vibration     1          0.594              1.983              5.665
 Vibration     2          0.596              1.974              4.528
 Vibration     3          0.599              1.965              3.975
 Vibration     4          0.602              1.955              3.631
 Vibration     5          0.607              1.941              3.254
 Vibration     6          0.616              1.909              2.748
 Vibration     7          0.628              1.870              2.356
 Vibration     8          0.632              1.859              2.267
 Vibration     9          0.638              1.838              2.120
 Vibration    10          0.649              1.804              1.924
 Vibration    11          0.663              1.762              1.728
 Vibration    12          0.672              1.735              1.621
 Vibration    13          0.687              1.690              1.467
 Vibration    14          0.692              1.675              1.420
 Vibration    15          0.698              1.658              1.371
 Vibration    16          0.708              1.630              1.296
 Vibration    17          0.711              1.620              1.270
 Vibration    18          0.721              1.593              1.206
 Vibration    19          0.733              1.560              1.133
 Vibration    20          0.747              1.522              1.056
 Vibration    21          0.760              1.486              0.991
 Vibration    22          0.775              1.446              0.922
 Vibration    23          0.796              1.392              0.840
 Vibration    24          0.806              1.368              0.805
 Vibration    25          0.827              1.316              0.737
 Vibration    26          0.843              1.280              0.692
 Vibration    27          0.881              1.193              0.596
 Vibration    28          0.891              1.171              0.575
 Vibration    29          0.931              1.087              0.496
 Vibration    30          0.946              1.055              0.469
 Vibration    31          0.969              1.010              0.432
 Vibration    32          0.970              1.009              0.431

 Normal termination of Gaussian 09 at Mon Mar 21 21:44:17 2016.
