 Gaussian 09, Revision B.01,
 Gaussian 09:  EM64L-G09RevB.01 12-Aug-2010

 ------------------------------------------------
 # freq=raman b3lyp/6-31+g(d,p) geom=connectivity
 ------------------------------------------------

 ------------
 290 8000.com
 ------------
 Symbolic Z-matrix:
 Charge =  0 Multiplicity = 1

                         Standard orientation:
 ---------------------------------------------------------------------
 Center     Atomic      Atomic             Coordinates (Angstroms)
 Number     Number       Type             X           Y           Z
 ---------------------------------------------------------------------
      1          8           0        5.039372   -0.360578   -0.287078
      2          6           0        3.722180   -0.128345    0.233461
      3          6           0        3.270770    1.220946   -0.301376
      4          8           0        4.215216    2.296889   -0.204424
      5          1           0        5.166762    1.990201   -0.217837
      6          6           0        1.883268    1.525149    0.239238
      7          8           0        1.298113    2.742814   -0.243562
      8          1           0        0.322207    2.850578   -0.052076
      9          6           0        3.145333   -2.512612    0.267293
     10          8           0        4.283766   -3.200721   -0.270895
     11          1           0        4.175707   -4.159003   -0.006441
     12          6           0        2.701869   -1.150285   -0.239226
     13          8           0        1.377372   -0.913499    0.259338
     14          6           0        0.942850    0.394071   -0.142592
     15          8           0       -0.319358    0.623974    0.498981
     16          6           0       -1.555483    0.209878   -0.102283
     17          6           0       -2.013168   -1.152225    0.392563
     18          8           0       -1.063087   -2.221917    0.282367
     19          1           0       -0.163131   -1.787287    0.312214
     20          6           0       -3.331051   -1.444642   -0.306715
     21          8           0       -3.955306   -2.693238    0.025510
     22          1           0       -4.905082   -2.809159   -0.267273
     23          6           0       -2.271841    2.556397   -0.084287
     24          8           0       -1.201151    3.401337    0.361883
     25          1           0       -1.314478    4.353766    0.076644
     26          6           0       -2.609858    1.166102    0.429475
     27          8           0       -3.846844    0.868929   -0.234378
     28          6           0       -4.385317   -0.422032    0.086500
     29          8           0       -5.587430   -0.648817   -0.654035
     30          1           0        5.641827   -0.544816    0.437287
     31          1           0        3.749899   -0.106555    1.302880
     32          1           0        3.134475    1.071933   -1.352146
     33          1           0        1.939190    1.575711    1.306579
     34          1           0        0.801374    0.402736   -1.203163
     35          1           0        2.680613   -1.160161   -1.308969
     36          1           0        2.308370   -3.169161    0.151810
     37          1           0       -1.503614    0.242476   -1.170528
     38          1           0       -2.231725   -1.044540    1.434454
     39          1           0       -2.698081    1.133045    1.495319
     40          1           0       -3.162533    3.132695    0.055171
     41          1           0       -2.117975    2.438348   -1.136565
     42          1           0       -4.583709   -0.485562    1.136026
     43          1           0       -6.302993   -0.853556   -0.047691
     44          1           0       -3.180260   -1.401205   -1.365146
     45          1           0        3.320548   -2.406277    1.317480
 ---------------------------------------------------------------------

 SCF Done:  E(RB3LYP) =  -1297.92411330     A.U. after   13 cycles

 The electronic state is 1-A.
 Alpha  occ. eigenvalues --  -19.20733 -19.19898 -19.19644 -19.19397 -19.18928
 Alpha  occ. eigenvalues --  -19.18278 -19.17317 -19.15977 -19.15584 -19.14724
 Alpha  occ. eigenvalues --  -19.13447 -10.31552 -10.31474 -10.27361 -10.26680
 Alpha  occ. eigenvalues --  -10.26550 -10.26066 -10.25649 -10.25093 -10.24863
 Alpha  occ. eigenvalues --  -10.24840 -10.24626 -10.24480  -1.10776  -1.09675
 Alpha  occ. eigenvalues --   -1.06012  -1.05494  -1.04764  -1.04332  -1.02992
 Alpha  occ. eigenvalues --   -1.02213  -1.01295  -1.00527  -0.99395  -0.83271
 Alpha  occ. eigenvalues --   -0.81640  -0.79997  -0.78852  -0.72062  -0.70148
 Alpha  occ. eigenvalues --   -0.67726  -0.64643  -0.63528  -0.63067  -0.62134
 Alpha  occ. eigenvalues --   -0.61231  -0.57002  -0.56328  -0.55878  -0.55400
 Alpha  occ. eigenvalues --   -0.54584  -0.54065  -0.53006  -0.51615  -0.51353
 Alpha  occ. eigenvalues --   -0.50726  -0.50718  -0.50070  -0.48912  -0.46910
 Alpha  occ. eigenvalues --   -0.46592  -0.45742  -0.45008  -0.44051  -0.43537
 Alpha  occ. eigenvalues --   -0.42797  -0.42098  -0.41654  -0.40633  -0.39987
 Alpha  occ. eigenvalues --   -0.39810  -0.37713  -0.37057  -0.36716  -0.36131
 Alpha  occ. eigenvalues --   -0.35573  -0.34371  -0.33993  -0.33872  -0.33624
 Alpha  occ. eigenvalues --   -0.33084  -0.31677  -0.30803  -0.30214  -0.30058
 Alpha  occ. eigenvalues --   -0.29693  -0.28735  -0.27570  -0.27149  -0.26856
 Alpha  occ. eigenvalues --   -0.26644
 Alpha virt. eigenvalues --   -0.02427  -0.02269  -0.02046  -0.00422  -0.00012
 Alpha virt. eigenvalues --    0.00987   0.01657   0.01865   0.03268   0.03642
 Alpha virt. eigenvalues --    0.03855   0.04386   0.04727   0.05221   0.05647

 Mulliken atomic charges:
              1
     1  O   -0.522345
     2  C   -0.172598
     3  C   -0.028461
     4  O   -0.513854
     5  H    0.362207
     6  C    0.099668
     7  O   -0.570327
     8  H    0.472411
     9  C   -0.104285
    10  O   -0.523903
    11  H    0.353489
    12  C    0.238641
    13  O   -0.402965
    14  C    0.191395
    15  O   -0.350842
    16  C   -0.244877
    17  C    0.077327
    18  O   -0.539892
    19  H    0.428905
    20  C    0.196035
    21  O   -0.524262
    22  H    0.358253
    23  C   -0.121672
    24  O   -0.615008
    25  H    0.387005
    26  C    0.149750
    27  O   -0.324350
    28  C    0.177165
    29  O   -0.568516
    30  H    0.368756
    31  H    0.136778
    32  H    0.120874
    33  H    0.135658
    34  H    0.126536
    35  H    0.146451
    36  H    0.138412
    37  H    0.138340
    38  H    0.122544
    39  H    0.153237
    40  H    0.140492
    41  H    0.141195
    42  H    0.131065
    43  H    0.370162
    44  H    0.139663
    45  H    0.125739
 Sum of Mulliken atomic charges =   0.00000

 Dipole moment (field-independent basis, Debye):
    X=             -2.4704    Y=             -0.1913    Z=              2.3899  Tot=              3.4426
 Quadrupole moment (field-independent basis, Debye-Ang):
   XX=           -115.0807   YY=           -142.2990   ZZ=           -138.6568
   XY=            -16.5261   XZ=              4.1411   YZ=             -1.9007

  Exact polarizability: 231.229   2.177 191.944   0.772  -1.154 140.405
 Approx polarizability: 268.969   2.855 247.644   0.473  -1.988 228.600

 ******    7 imaginary frequencies (negative Signs) ******

                     1                      2                      3
                     A                      A                      A
 Frequencies --  -317.4350              -301.0177              -277.6144
 Red. masses --     1.4017                 1.7514                 1.3679
 Frc consts  --     0.0832                 0.0935                 0.0621
 IR Inten    --    66.4939                 5.3609                49.4686
 Raman Activ --     0.3344                 0.0271                 0.4106

                     4                      5                      6
                     A                      A                      A
 Frequencies --  -229.1597               -88.5171               -35.9310
 Red. masses --     1.2033                 7.2241                 6.2157
 Frc consts  --     0.0372                 0.0333                 0.0047
 IR Inten    --   136.7781                 2.5659                 0.5911
 Raman Activ --     1.0289                 0.0205                 0.0168

                     7                      8                      9
                     A                      A                      A
 Frequencies --   -31.3659                37.3640                79.6089
 Red. masses --     7.1874                 6.7721                 6.7098
 Frc consts  --     0.0042                 0.0056                 0.0251
 IR Inten    --     1.2753                 0.4213                 1.7329
 Raman Activ --     0.0419                 0.0288                 0.3687

                    10                     11                     12
                     A                      A                      A
 Frequencies --    91.5893                95.2036               142.0581
 Red. masses --     7.2817                 7.4795                 6.0007
 Frc consts  --     0.0360                 0.0399                 0.0713
 IR Inten    --     1.3058                 1.2406                 2.0013
 Raman Activ --     0.0607                 0.0533                 0.0780

                    13                     14                     15
                     A                      A                      A
 Frequencies --   162.6733               180.0244               192.7037
 Red. masses --     6.2865                 6.4592                 6.8539
 Frc consts  --     0.0980                 0.1233                 0.1500
 IR Inten    --     9.5433                 1.0901                 0.5161
 Raman Activ --     0.2444                 0.7844                 0.2892

                    16                     17                     18
                     A                      A                      A
 Frequencies --   211.6208               240.5991               272.5507
 Red. masses --     7.0800                 6.0433                 4.3217
 Frc consts  --     0.1868                 0.2061                 0.1891
 IR Inten    --     0.3649                 2.0989                21.5315
 Raman Activ --     2.9936                 0.4831                 0.3543

                    19                     20                     21
                     A                      A                      A
 Frequencies --   288.2682               302.3261               304.6274
 Red. masses --     4.4965                 4.8594                 4.9905
 Frc consts  --     0.2202                 0.2617                 0.2729
 IR Inten    --     1.5028                 6.5883                 4.1515
 Raman Activ --     0.1316                 0.4561                 0.1819

                    22                     23                     24
                     A                      A                      A
 Frequencies --   313.3510               316.3500               339.2406
 Red. masses --     6.4798                 6.3951                 5.3063
 Frc consts  --     0.3749                 0.3771                 0.3598
 IR Inten    --     7.1239                 2.2267                 1.4096
 Raman Activ --     2.0724                 5.4825                 1.0433

                    25                     26                     27
                     A                      A                      A
 Frequencies --   349.5063               358.1807               380.7945
 Red. masses --     6.6256                 4.5952                 5.6579
 Frc consts  --     0.4769                 0.3473                 0.4834
 IR Inten    --    24.6198                 3.0223                 5.9286
 Raman Activ --     1.1447                 0.6677                 1.0890

                    28                     29                     30
                     A                      A                      A
 Frequencies --   410.1546               427.5060               434.2014
 Red. masses --     5.7598                 5.4002                 5.7636
 Frc consts  --     0.5709                 0.5815                 0.6402
 IR Inten    --    16.3030                 4.3073                 3.2102
 Raman Activ --     1.5618                 6.4662                 1.8952

                    31                     32                     33
                     A                      A                      A
 Frequencies --   438.4152               473.8134               492.5321
 Red. masses --     5.6030                 4.4735                 4.4598
 Frc consts  --     0.6345                 0.5917                 0.6374
 IR Inten    --     6.0104                 3.9493                 9.7082
 Raman Activ --     4.1375                 5.2792                 0.2297

                    34                     35                     36
                     A                      A                      A
 Frequencies --   520.3109               528.2764               574.9822
 Red. masses --     3.1567                 3.4667                 3.7449
 Frc consts  --     0.5035                 0.5700                 0.7295
 IR Inten    --     5.3983                13.5822                13.0492
 Raman Activ --     4.0462                 2.0993                 0.6081

                    37                     38                     39
                     A                      A                      A
 Frequencies --   588.1034               600.1725               610.3569
 Red. masses --     3.3403                 5.1430                 3.9528
 Frc consts  --     0.6807                 1.0915                 0.8676
 IR Inten    --    22.2107                 1.4067                44.3908
 Raman Activ --     0.6341                 1.0977                 1.2159

                    40                     41                     42
                     A                      A                      A
 Frequencies --   623.0776               669.0842               678.1880
 Red. masses --     3.9511                 1.1856                 3.7482
 Frc consts  --     0.9038                 0.3127                 1.0157
 IR Inten    --    18.3145                67.1476                11.1538
 Raman Activ --     1.6760                 2.1679                 0.6814

                    43                     44                     45
                     A                      A                      A
 Frequencies --   687.9685               691.8632               693.3947
 Red. masses --     1.0497                 1.0740                 1.0792
 Frc consts  --     0.2927                 0.3029                 0.3057
 IR Inten    --    65.2268               115.8052               150.8361
 Raman Activ --     2.3798                 2.3049                 1.5158

                    46                     47                     48
                     A                      A                      A
 Frequencies --   760.4840               823.8498               858.5061
 Red. masses --     1.0709                 1.0990                 1.7800
 Frc consts  --     0.3649                 0.4395                 0.7729
 IR Inten    --    66.4798                91.9699                 1.4599
 Raman Activ --     0.6103                 0.4000                 0.3961

                    49                     50                     51
                     A                      A                      A
 Frequencies --   870.4412               930.7655               963.4057
 Red. masses --     1.6383                 5.4017                 4.0190
 Frc consts  --     0.7314                 2.7572                 2.1978
 IR Inten    --    14.4835                50.5084                28.9557
 Raman Activ --     0.1825                 2.6946                 2.1260

                    52                     53                     54
                     A                      A                      A
 Frequencies --   977.8247               988.0410               993.7582
 Red. masses --     4.6106                 4.2290                 6.3455
 Frc consts  --     2.5973                 2.4324                 3.6921
 IR Inten    --    38.5615                 9.9471               172.6242
 Raman Activ --     1.7959                 0.5956                 1.1170

                    55                     56                     57
                     A                      A                      A
 Frequencies --  1005.8975              1021.9498              1027.9222
 Red. masses --     5.8170                 5.6707                 4.0440
 Frc consts  --     3.4678                 3.4893                 2.5176
 IR Inten    --    85.6678               112.9069               319.4058
 Raman Activ --     3.4380                 1.1453                 4.6471

                    58                     59                     60
                     A                      A                      A
 Frequencies --  1040.3324              1054.0567              1071.3198
 Red. masses --     5.3745                 3.5854                 2.7490
 Frc consts  --     3.4271                 2.3470                 1.8589
 IR Inten    --   478.7717               153.5315                12.7885
 Raman Activ --     2.9769                 3.6591                 6.3861

                    61                     62                     63
                     A                      A                      A
 Frequencies --  1078.2414              1081.8786              1086.5767
 Red. masses --     3.6730                 5.2693                 4.6675
 Frc consts  --     2.5159                 3.6338                 3.2468
 IR Inten    --   124.0303                 0.8333                17.9832
 Raman Activ --     4.9374                 2.3273                11.8358

                    64                     65                     66
                     A                      A                      A
 Frequencies --  1103.9330              1107.2747              1113.6608
 Red. masses --     2.7788                 2.0559                 2.9680
 Frc consts  --     1.9952                 1.4851                 2.1688
 IR Inten    --     7.7505                22.5230               140.2406
 Raman Activ --     5.8462                 5.5488                 4.9686

                    67                     68                     69
                     A                      A                      A
 Frequencies --  1122.5269              1127.5689              1137.0577
 Red. masses --     3.0632                 1.6915                 2.2781
 Frc consts  --     2.2742                 1.2671                 1.7353
 IR Inten    --     8.9493                39.2788                30.1657
 Raman Activ --    21.4380                 3.9491                 3.4366

                    70                     71                     72
                     A                      A                      A
 Frequencies --  1141.6572              1147.2123              1151.5368
 Red. masses --     2.1079                 2.0633                 2.2058
 Frc consts  --     1.6187                 1.5999                 1.7234
 IR Inten    --     8.8717                19.7789                45.8267
 Raman Activ --     2.7695                 2.5291                 6.1972

                    73                     74                     75
                     A                      A                      A
 Frequencies --  1156.8085              1168.4176              1173.0077
 Red. masses --     2.4063                 2.7832                 2.0088
 Frc consts  --     1.8972                 2.2387                 1.6285
 IR Inten    --    55.9160                67.9204                18.7955
 Raman Activ --     4.3552                 1.1909                 2.6871

                    76                     77                     78
                     A                      A                      A
 Frequencies --  1207.1731              1214.0983              1233.7067
 Red. masses --     1.5834                 1.3770                 1.4220
 Frc consts  --     1.3595                 1.1959                 1.2752
 IR Inten    --     7.0359                16.9322                 5.0819
 Raman Activ --     2.0293                 0.9863                 0.6942

                    79                     80                     81
                     A                      A                      A
 Frequencies --  1242.9485              1249.2100              1262.9393
 Red. masses --     1.4051                 1.3649                 1.2456
 Frc consts  --     1.2790                 1.2549                 1.1706
 IR Inten    --    17.5958                31.5016                47.5390
 Raman Activ --     2.0270                 5.9870                 2.1497

                    82                     83                     84
                     A                      A                      A
 Frequencies --  1273.1349              1277.4325              1282.0851
 Red. masses --     1.3598                 1.1501                 1.3150
 Frc consts  --     1.2986                 1.1057                 1.2735
 IR Inten    --     4.6094                27.7039                16.2608
 Raman Activ --     2.1639                 9.5127                 4.2364

                    85                     86                     87
                     A                      A                      A
 Frequencies --  1283.7489              1298.7510              1310.7300
 Red. masses --     1.2632                 1.2385                 1.2108
 Frc consts  --     1.2266                 1.2308                 1.2256
 IR Inten    --    25.6112                44.3389                20.5463
 Raman Activ --     1.7377                 5.3734                 8.0833

                    88                     89                     90
                     A                      A                      A
 Frequencies --  1315.1044              1320.8569              1326.9881
 Red. masses --     1.3464                 1.3728                 1.2952
 Frc consts  --     1.3720                 1.4112                 1.3438
 IR Inten    --    15.5552                28.2776                 4.8825
 Raman Activ --     4.6276                 4.5628                 3.6835

                    91                     92                     93
                     A                      A                      A
 Frequencies --  1351.3903              1353.7192              1355.6434
 Red. masses --     1.2632                 1.2744                 1.1785
 Frc consts  --     1.3592                 1.3760                 1.2761
 IR Inten    --    32.5723                 5.6400                46.7068
 Raman Activ --     1.4498                 2.9769                 2.9344

                    94                     95                     96
                     A                      A                      A
 Frequencies --  1361.1233              1366.9974              1378.9135
 Red. masses --     1.3844                 1.4249                 1.5943
 Frc consts  --     1.5111                 1.5688                 1.7860
 IR Inten    --     1.4859                 2.8829                12.1120
 Raman Activ --    10.9763                 7.6342                 1.1863

                    97                     98                     99
                     A                      A                      A
 Frequencies --  1384.9428              1386.2524              1397.7576
 Red. masses --     1.2900                 1.5347                 1.3909
 Frc consts  --     1.4579                 1.7376                 1.6010
 IR Inten    --     3.2522                36.0323                 5.0151
 Raman Activ --     1.3838                 3.7023                 2.9308

                   100                    101                    102
                     A                      A                      A
 Frequencies --  1398.2719              1402.0355              1440.1198
 Red. masses --     1.4236                 1.3435                 1.4023
 Frc consts  --     1.6400                 1.5560                 1.7135
 IR Inten    --    31.0006                14.2745                46.4158
 Raman Activ --     2.5688                 4.8300                 1.3585

                   103                    104                    105
                     A                      A                      A
 Frequencies --  1457.8771              1472.6831              1481.2998
 Red. masses --     1.2619                 1.2724                 1.1200
 Frc consts  --     1.5802                 1.6258                 1.4480
 IR Inten    --     3.4519                12.4058                 6.1319
 Raman Activ --     2.3332                 4.2487                 3.3585

                   106                    107                    108
                     A                      A                      A
 Frequencies --  1488.3283              1513.2271              3243.4494
 Red. masses --     1.1494                 1.2318                 1.0704
 Frc consts  --     1.5001                 1.6618                 6.6344
 IR Inten    --     7.4119                43.5684               948.6107
 Raman Activ --     2.3650                 1.2091               149.0677

                   109                    110                    111
                     A                      A                      A
 Frequencies --  3262.5315              3268.5580              3271.5009
 Red. masses --     1.0591                 1.0619                 1.0797
 Frc consts  --     6.6418                 6.6841                 6.8084
 IR Inten    --    30.2442                34.8170                53.3580
 Raman Activ --    63.3846               221.8609                39.3933

                   112                    113                    114
                     A                      A                      A
 Frequencies --  3274.7054              3291.1306              3294.4880
 Red. masses --     1.0824                 1.0832                 1.0849
 Frc consts  --     6.8387                 6.9130                 6.9375
 IR Inten    --    83.5895                 7.3766                 1.6546
 Raman Activ --    52.2246                13.6711                77.1496

                   115                    116                    117
                     A                      A                      A
 Frequencies --  3297.1029              3301.3879              3304.8913
 Red. masses --     1.0835                 1.0875                 1.0869
 Frc consts  --     6.9400                 6.9834                 6.9945
 IR Inten    --    27.4501                 7.3211                34.6353
 Raman Activ --   151.5997                 8.9612                30.3222

                   118                    119                    120
                     A                      A                      A
 Frequencies --  3307.3818              3309.3089              3315.3845
 Red. masses --     1.0864                 1.0929                 1.0904
 Frc consts  --     7.0016                 7.0522                 7.0617
 IR Inten    --     0.0422                65.0754                61.3474
 Raman Activ --   137.8671                13.7039                12.0784

                   121                    122                    123
                     A                      A                      A
 Frequencies --  3318.5059              3326.4642              3329.0316
 Red. masses --     1.0955                 1.0754                 1.0965
 Frc consts  --     7.1078                 7.0112                 7.1599
 IR Inten    --   104.0351               645.9725               122.9118
 Raman Activ --     7.5612               183.3546                27.1636

                   124                    125                    126
                     A                      A                      A
 Frequencies --  3378.7960              3388.3952              3389.3733
 Red. masses --     1.0665                 1.0678                 1.0674
 Frc consts  --     7.1737                 7.2234                 7.2247
 IR Inten    --    49.7644                85.1327                41.3010
 Raman Activ --   144.3447               156.0792               146.5496

                   127                    128                    129
                     A                      A                      A
 Frequencies --  3394.2755              3919.6848              3920.4184
 Red. masses --     1.0663                 1.0677                 1.0678
 Frc consts  --     7.2382                 9.6652                 9.6693
 IR Inten    --    45.6209                93.6215                65.8681
 Raman Activ --   127.9096                99.4860               102.5268

 - Thermochemistry -
 -------------------
 Temperature   298.150 Kelvin.  Pressure   1.00000 Atm.
 Atom     1 has atomic number  8 and mass  15.99491

 Molecular mass:   342.11621 amu.
 Principal axes and moments of inertia in atomic units:
                           1         2         3
     Eigenvalues --  4357.67350********************
           X            0.99997  -0.00736   0.00062
           Y            0.00736   0.99997  -0.00329
           Z           -0.00060   0.00329   0.99999
 This molecule is an asymmetric top.
 Rotational symmetry number  1.
 Warning -- assumption of classical behavior for rotation
           may cause significant error
 Rotational temperatures (Kelvin)      0.01988     0.00690     0.00523
 Rotational constants (GHZ):           0.41415     0.14373     0.10904
    7 imaginary frequencies ignored.
 Zero-point vibrational energy     976650.5 (Joules/Mol)
                                  233.42507 (Kcal/Mol)
 Warning -- explicit consideration of  32 degrees of freedom as
           vibrations may cause significant error
 Vibrational temperatures:     53.76   114.54   131.78   136.98   204.39
          (Kelvin)            234.05   259.01   277.26   304.47   346.17
                              392.14   414.75   434.98   438.29   450.84
                              455.16   488.09   502.86   515.34   547.88
                              590.12   615.09   624.72   630.78   681.71
                              708.64   748.61   760.07   827.27   846.15
                              863.51   878.17   896.47   962.66   975.76
                              989.83   995.44   997.64  1094.17  1185.33
                             1235.20  1252.37  1339.16  1386.12  1406.87
                             1421.57  1429.79  1447.26  1470.36  1478.95
                             1496.80  1516.55  1541.39  1551.35  1556.58
                             1563.34  1588.31  1593.12  1602.31  1615.06
                             1622.32  1635.97  1642.59  1650.58  1656.80
                             1664.39  1681.09  1687.69  1736.85  1746.81
                             1775.03  1788.32  1797.33  1817.09  1831.75
                             1837.94  1844.63  1847.03  1868.61  1885.85
                             1892.14  1900.42  1909.24  1944.35  1947.70
                             1950.47  1958.35  1966.80  1983.95  1992.62
                             1994.51  2011.06  2011.80  2017.21  2072.01
                             2097.56  2118.86  2131.26  2141.37  2177.19
                             4666.59  4694.05  4702.72  4706.95  4711.56
                             4735.20  4740.03  4743.79  4749.95  4755.00
                             4758.58  4761.35  4770.09  4774.58  4786.03
                             4789.73  4861.33  4875.14  4876.55  4883.60
                             5639.55  5640.60

 Zero-point correction=                           0.371987 (Hartree/Particle)
 Thermal correction to Energy=                    0.390136
 Thermal correction to Enthalpy=                  0.391080
 Thermal correction to Gibbs Free Energy=         0.326898
 Sum of electronic and zero-point Energies=          -1297.552127
 Sum of electronic and thermal Energies=             -1297.533977
 Sum of electronic and thermal Enthalpies=           -1297.533033
 Sum of electronic and thermal Free Energies=        -1297.597215

                     E (Thermal)             CV                S
                      KCal/Mol        Cal/Mol-Kelvin    Cal/Mol-Kelvin
 Total                  244.814             75.898            135.082
 Electronic               0.000              0.000              0.000
 Translational            0.889              2.981             43.384
 Rotational               0.889              2.981             35.159
 Vibrational            243.037             69.936             56.539
 Vibration     1          0.594              1.982              5.394
 Vibration     2          0.600              1.963              3.900
 Vibration     3          0.602              1.955              3.626
 Vibration     4          0.603              1.953              3.550
 Vibration     5          0.616              1.911              2.776
 Vibration     6          0.623              1.888              2.518
 Vibration     7          0.629              1.867              2.328
 Vibration     8          0.635              1.850              2.202
 Vibration     9          0.643              1.823              2.030
 Vibration    10          0.658              1.778              1.798
 Vibration    11          0.676              1.724              1.580
 Vibration    12          0.685              1.696              1.484
 Vibration    13          0.694              1.669              1.404
 Vibration    14          0.696              1.665              1.391
 Vibration    15          0.701              1.648              1.345
 Vibration    16          0.703              1.642              1.329
 Vibration    17          0.719              1.597              1.216
 Vibration    18          0.727              1.576              1.168
 Vibration    19          0.733              1.558              1.130
 Vibration    20          0.751              1.511              1.036
 Vibration    21          0.774              1.448              0.926
 Vibration    22          0.789              1.410              0.867
 Vibration    23          0.795              1.396              0.845
 Vibration    24          0.799              1.386              0.832
 Vibration    25          0.831              1.308              0.727
 Vibration    26          0.848              1.267              0.677
 Vibration    27          0.875              1.205              0.609
 Vibration    28          0.883              1.187              0.591
 Vibration    29          0.931              1.085              0.495
 Vibration    30          0.945              1.057              0.471
 Vibration    31          0.958              1.031              0.449
 Vibration    32          0.969              1.010              0.432

 Normal termination of Gaussian 09 at Thu Jan 21 05:04:22 2016.
