 Gaussian 09, Revision B.01,
 Gaussian 09:  EM64L-G09RevB.01 12-Aug-2010

 -------------------------------------------------
 # freq=raman b3lyp/6-31+g(2d,p) geom=connectivity
 -------------------------------------------------

 -----------------
 550 8597/8597.com
 -----------------
 Symbolic Z-matrix:
 Charge =  0 Multiplicity = 1

                         Standard orientation:
 ---------------------------------------------------------------------
 Center     Atomic      Atomic             Coordinates (Angstroms)
 Number     Number       Type             X           Y           Z
 ---------------------------------------------------------------------
      1          8           0        4.886159   -0.469997   -1.021667
      2          6           0        3.910739   -0.131774   -0.025865
      3          6           0        3.342064    1.176984   -0.548708
      4          8           0        4.180316    2.200683    0.007045
      5          1           0        5.083816    2.333398   -0.400874
      6          6           0        2.054012    1.635437    0.113726
      7          8           0        1.554913    2.855347   -0.453806
      8          1           0        2.267682    3.555408   -0.413522
      9          6           0        2.992650   -2.472947    0.688105
     10          8           0        1.956382   -3.465736    0.658398
     11          1           0        2.364139   -4.359321    0.847747
     12          6           0        2.775915   -1.143173   -0.016630
     13          8           0        1.592106   -0.745707    0.690456
     14          6           0        1.088429    0.461635    0.101220
     15          8           0       -0.148047    0.774268    0.759946
     16          6           0       -1.272480    0.303239    0.002820
     17          6           0       -1.614573   -1.165196    0.193265
     18          8           0       -0.719121   -2.078950   -0.456118
     19          1           0        0.202994   -1.874087   -0.128000
     20          6           0       -2.912675   -1.448512   -0.546214
     21          8           0       -3.312254   -2.804893   -0.300622
     22          1           0       -2.724647   -3.369705   -0.879598
     23          6           0       -2.154806    2.586941    0.133628
     24          8           0       -3.251740    3.445165    0.481941
     25          1           0       -3.289574    3.589558    1.471456
     26          6           0       -2.483153    1.128024    0.409837
     27          8           0       -3.679278    0.807981   -0.314777
     28          6           0       -4.044516   -0.556576   -0.062343
     29          8           0       -5.383089   -0.748579   -0.542760
     30          1           0       -6.007785   -0.459016    0.126201
     31          1           0       -4.086510   -0.673939    1.000371
     32          1           0       -2.765886   -1.302997   -1.596061
     33          1           0       -1.712176   -1.402644    1.232010
     34          1           0       -1.077557    0.473917   -1.035339
     35          1           0       -2.660935    0.999053    1.457053
     36          1           0       -1.295858    2.866848    0.707003
     37          1           0       -1.934836    2.705120   -0.906827
     38          1           0        5.763691   -0.258455   -0.694884
     39          1           0        3.198649   -2.258560    1.715969
     40          1           0        3.870711   -2.916710    0.267412
     41          1           0        2.506800   -1.344410   -1.032494
     42          1           0        4.352088   -0.014524    0.941794
     43          1           0        3.299794    1.221606   -1.616941
     44          1           0        2.283190    1.840836    1.138513
     45          1           0        0.861806    0.247481   -0.922342
 ---------------------------------------------------------------------

 SCF Done:  E(RB3LYP) =  -1297.97796162     A.U. after   14 cycles

 The electronic state is 1-A.
 Alpha  occ. eigenvalues --  -19.19542 -19.19239 -19.18379 -19.17516 -19.17084
 Alpha  occ. eigenvalues --  -19.16925 -19.15035 -19.15022 -19.14230 -19.13980
 Alpha  occ. eigenvalues --  -19.13938 -10.30561 -10.27918 -10.27608 -10.26824
 Alpha  occ. eigenvalues --  -10.26494 -10.25758 -10.24812 -10.24175 -10.23367
 Alpha  occ. eigenvalues --  -10.23212 -10.23183 -10.21732  -1.10461  -1.07744
 Alpha  occ. eigenvalues --   -1.06351  -1.05626  -1.04602  -1.03031  -1.02730
 Alpha  occ. eigenvalues --   -1.02331  -1.00887  -0.99755  -0.99440  -0.82337
 Alpha  occ. eigenvalues --   -0.81697  -0.78586  -0.76869  -0.71897  -0.68901
 Alpha  occ. eigenvalues --   -0.67920  -0.64672  -0.63415  -0.62483  -0.61105
 Alpha  occ. eigenvalues --   -0.59587  -0.57505  -0.56757  -0.55362  -0.53581
 Alpha  occ. eigenvalues --   -0.53442  -0.53094  -0.52629  -0.52076  -0.50541
 Alpha  occ. eigenvalues --   -0.50218  -0.49596  -0.48112  -0.47640  -0.46625
 Alpha  occ. eigenvalues --   -0.45159  -0.44330  -0.44260  -0.43390  -0.43225
 Alpha  occ. eigenvalues --   -0.42263  -0.42125  -0.40789  -0.39615  -0.39498
 Alpha  occ. eigenvalues --   -0.38675  -0.38085  -0.37632  -0.36650  -0.35824
 Alpha  occ. eigenvalues --   -0.34855  -0.34629  -0.34185  -0.33773  -0.32886
 Alpha  occ. eigenvalues --   -0.31913  -0.31461  -0.30864  -0.30191  -0.29783
 Alpha  occ. eigenvalues --   -0.29534  -0.29005  -0.28392  -0.27155  -0.25928
 Alpha  occ. eigenvalues --   -0.25410
 Alpha virt. eigenvalues --   -0.03874  -0.01706  -0.00878  -0.00240   0.00512
 Alpha virt. eigenvalues --    0.01180   0.01640   0.01982   0.02501   0.03316
 Alpha virt. eigenvalues --    0.03847   0.04158   0.04986   0.05497   0.05667

 Mulliken atomic charges:
              1
     1  O   -0.542491
     2  C   -0.185805
     3  C    0.399434
     4  O   -0.622432
     5  H    0.336605
     6  C   -0.300033
     7  O   -0.559290
     8  H    0.360627
     9  C   -0.436944
    10  O   -0.520153
    11  H    0.350242
    12  C    0.574841
    13  O   -0.280376
    14  C    0.360699
    15  O   -0.242643
    16  C    0.092444
    17  C    0.171465
    18  O   -0.591120
    19  H    0.393872
    20  C    0.035053
    21  O   -0.507651
    22  H    0.343452
    23  C   -0.136809
    24  O   -0.498423
    25  H    0.318240
    26  C   -0.214254
    27  O   -0.245071
    28  C    0.174048
    29  O   -0.526068
    30  H    0.325306
    31  H    0.100231
    32  H    0.128749
    33  H    0.131608
    34  H    0.113045
    35  H    0.107853
    36  H    0.165441
    37  H    0.152751
    38  H    0.331551
    39  H    0.141008
    40  H    0.137250
    41  H    0.128488
    42  H    0.136966
    43  H    0.146370
    44  H    0.138031
    45  H    0.113889
 Sum of Mulliken atomic charges =   0.00000

 Dipole moment (field-independent basis, Debye):
    X=             10.1311    Y=              0.0573    Z=              2.2949  Tot=             10.3879
 Quadrupole moment (field-independent basis, Debye-Ang):
   XX=           -117.7054   YY=           -140.1039   ZZ=           -135.5628
   XY=             -0.6490   XZ=            -11.8292   YZ=              1.2848

  Exact polarizability: 224.696   2.214 199.054  -3.259   0.858 146.052
 Approx polarizability: 268.468   2.336 257.777  -4.067   2.459 243.953

 ******    7 imaginary frequencies (negative Signs) ******

                     1                      2                      3
                     A                      A                      A
 Frequencies --  -268.9059              -262.5659              -260.8456
 Red. masses --     1.7673                 1.1143                 1.1837
 Frc consts  --     0.0753                 0.0453                 0.0475
 IR Inten    --     3.4272                48.4761               169.1470
 Raman Activ --     0.0472                 1.5057                 0.7378

                     4                      5                      6
                     A                      A                      A
 Frequencies --  -110.1025               -75.4778               -50.0046
 Red. masses --     1.9516                 5.4778                 6.7403
 Frc consts  --     0.0139                 0.0184                 0.0099
 IR Inten    --     3.9586                 0.2141                 0.1032
 Raman Activ --     0.0679                 0.0670                 0.0171

                     7                      8                      9
                     A                      A                      A
 Frequencies --   -25.7098                40.6670                56.9413
 Red. masses --     6.1837                 6.5361                 5.9563
 Frc consts  --     0.0024                 0.0064                 0.0114
 IR Inten    --     0.9301                 0.8593                 0.5943
 Raman Activ --     0.1413                 0.0809                 0.0398

                    10                     11                     12
                     A                      A                      A
 Frequencies --    67.6141               101.3766               121.6240
 Red. masses --     5.9319                 6.9632                 5.9622
 Frc consts  --     0.0160                 0.0422                 0.0520
 IR Inten    --     1.2797                 0.8110                 2.9958
 Raman Activ --     0.0376                 0.2959                 0.3600

                    13                     14                     15
                     A                      A                      A
 Frequencies --   142.1224               155.9530               181.5567
 Red. masses --     6.0811                 5.8449                 6.0913
 Frc consts  --     0.0724                 0.0838                 0.1183
 IR Inten    --     1.2692                 0.6711                 1.0125
 Raman Activ --     0.0981                 0.4576                 0.3111

                    16                     17                     18
                     A                      A                      A
 Frequencies --   208.9043               213.3242               253.3800
 Red. masses --     5.5502                 7.0954                 5.0176
 Frc consts  --     0.1427                 0.1902                 0.1898
 IR Inten    --     2.2830                 2.1660                 7.8852
 Raman Activ --     0.2706                 2.1669                 0.7526

                    19                     20                     21
                     A                      A                      A
 Frequencies --   277.7414               284.2666               299.7526
 Red. masses --     5.2687                 5.9118                 5.6156
 Frc consts  --     0.2395                 0.2815                 0.2973
 IR Inten    --     7.9702                 2.8140                 3.7853
 Raman Activ --     0.3424                 0.3095                 0.5449

                    22                     23                     24
                     A                      A                      A
 Frequencies --   316.3159               331.1104               337.8026
 Red. masses --     4.5158                 5.9981                 5.8220
 Frc consts  --     0.2662                 0.3874                 0.3914
 IR Inten    --     3.1231                 0.3324                 8.6981
 Raman Activ --     0.3597                 0.8059                 6.4185

                    25                     26                     27
                     A                      A                      A
 Frequencies --   342.3813               368.9839               386.5711
 Red. masses --     6.8960                 5.9329                 4.2652
 Frc consts  --     0.4763                 0.4759                 0.3755
 IR Inten    --     1.6343                 0.3256                 4.0716
 Raman Activ --     2.7216                 0.4599                 0.3866

                    28                     29                     30
                     A                      A                      A
 Frequencies --   423.9444               433.3771               448.3094
 Red. masses --     6.2499                 4.9942                 5.7485
 Frc consts  --     0.6618                 0.5526                 0.6807
 IR Inten    --     4.5269                 1.3409                 7.2651
 Raman Activ --     5.7933                 2.1745                 1.3967

                    31                     32                     33
                     A                      A                      A
 Frequencies --   455.0524               482.7578               497.1771
 Red. masses --     4.5603                 4.2788                 4.7659
 Frc consts  --     0.5564                 0.5875                 0.6941
 IR Inten    --     7.2587                 9.1804                11.9102
 Raman Activ --     3.5497                 1.8741                 0.9651

                    34                     35                     36
                     A                      A                      A
 Frequencies --   545.0663               549.9472               560.6055
 Red. masses --     3.8974                 3.7786                 6.0011
 Frc consts  --     0.6822                 0.6733                 1.1112
 IR Inten    --    29.1797                 5.9733                 9.1203
 Raman Activ --     3.5984                 4.4124                 2.2246

                    37                     38                     39
                     A                      A                      A
 Frequencies --   592.3356               600.4795               616.6268
 Red. masses --     2.9020                 3.7491                 3.1181
 Frc consts  --     0.5999                 0.7965                 0.6985
 IR Inten    --    22.8150                 7.9399                12.4701
 Raman Activ --     0.2934                 0.4210                 0.2115

                    40                     41                     42
                     A                      A                      A
 Frequencies --   660.6725               678.1844               679.2620
 Red. masses --     4.7806                 1.1217                 2.4136
 Frc consts  --     1.2294                 0.3040                 0.6561
 IR Inten    --    12.7874                87.9340                84.7868
 Raman Activ --     0.0898                 1.7099                 0.2872

                    43                     44                     45
                     A                      A                      A
 Frequencies --   699.2263               716.4554               718.0745
 Red. masses --     1.0883                 1.0748                 1.1137
 Frc consts  --     0.3135                 0.3251                 0.3383
 IR Inten    --    74.0176                98.5061               111.6726
 Raman Activ --     1.3562                 0.8391                 1.7451

                    46                     47                     48
                     A                      A                      A
 Frequencies --   735.2648               826.2861               848.5130
 Red. masses --     1.0723                 1.0720                 2.5070
 Frc consts  --     0.3416                 0.4312                 1.0635
 IR Inten    --   108.3262                62.2361                 3.5360
 Raman Activ --     2.4018                 0.9110                 1.9973

                    49                     50                     51
                     A                      A                      A
 Frequencies --   871.3957               963.8319               970.2732
 Red. masses --     2.6019                 5.8864                 6.9094
 Frc consts  --     1.1641                 3.2218                 3.8325
 IR Inten    --     2.8912                23.0899               387.6437
 Raman Activ --     1.7680                 1.9659                 2.6009

                    52                     53                     54
                     A                      A                      A
 Frequencies --   977.8497               983.1411               987.6127
 Red. masses --     4.5467                 4.5768                 7.3352
 Frc consts  --     2.5615                 2.6064                 4.2154
 IR Inten    --    24.5851               105.2305               117.2565
 Raman Activ --     2.3288                 1.4844                 3.6741

                    55                     56                     57
                     A                      A                      A
 Frequencies --  1005.4845              1014.7868              1025.8788
 Red. masses --     6.7671                 5.7320                 4.2986
 Frc consts  --     4.0309                 3.4778                 2.6655
 IR Inten    --    79.3844               264.7541                91.3402
 Raman Activ --     2.7157                 4.9999                 1.9941

                    58                     59                     60
                     A                      A                      A
 Frequencies --  1027.9246              1045.7597              1050.0423
 Red. masses --     4.6006                 5.4736                 4.1993
 Frc consts  --     2.8641                 3.5268                 2.7280
 IR Inten    --   253.1154               160.0557                26.1547
 Raman Activ --     0.9970                15.4071                 4.8791

                    61                     62                     63
                     A                      A                      A
 Frequencies --  1054.1344              1059.4159              1070.0107
 Red. masses --     2.6493                 3.4638                 2.9053
 Frc consts  --     1.7345                 2.2906                 1.9598
 IR Inten    --    69.2370                39.4162                12.1473
 Raman Activ --    12.6134                 3.2078                 1.5419

                    64                     65                     66
                     A                      A                      A
 Frequencies --  1079.2358              1091.8712              1100.3702
 Red. masses --     2.9677                 3.4965                 2.3762
 Frc consts  --     2.0366                 2.4560                 1.6952
 IR Inten    --    11.8554                12.5831                16.6639
 Raman Activ --     5.7204                 4.0859                 4.1691

                    67                     68                     69
                     A                      A                      A
 Frequencies --  1101.6688              1109.6865              1115.0309
 Red. masses --     3.1866                 2.1734                 1.8259
 Frc consts  --     2.2786                 1.5769                 1.3375
 IR Inten    --     4.8076                46.1764                 6.8840
 Raman Activ --     2.8966                 6.0226                 0.6595

                    70                     71                     72
                     A                      A                      A
 Frequencies --  1120.1354              1137.5226              1151.1525
 Red. masses --     2.1528                 2.7702                 2.5174
 Frc consts  --     1.5915                 2.1119                 1.9655
 IR Inten    --     3.6264                31.5340                12.3360
 Raman Activ --     6.4727                 3.3171                 3.6883

                    73                     74                     75
                     A                      A                      A
 Frequencies --  1166.8187              1169.5412              1177.5482
 Red. masses --     1.9026                 1.6384                 1.4949
 Frc consts  --     1.5262                 1.3204                 1.2213
 IR Inten    --    39.4779                 9.2397                 5.0133
 Raman Activ --     3.3304                 1.9269                 0.3956

                    76                     77                     78
                     A                      A                      A
 Frequencies --  1183.0845              1189.4664              1211.6907
 Red. masses --     1.4281                 1.6136                 1.3267
 Frc consts  --     1.1777                 1.3451                 1.1476
 IR Inten    --     6.3281                20.2422                21.1682
 Raman Activ --     2.4897                 3.0377                 1.3668

                    79                     80                     81
                     A                      A                      A
 Frequencies --  1227.1443              1243.5379              1264.0832
 Red. masses --     1.2247                 1.3436                 1.2737
 Frc consts  --     1.0866                 1.2241                 1.1991
 IR Inten    --     8.4421                 8.4948                13.7574
 Raman Activ --     2.6311                 4.1582                 3.8336

                    82                     83                     84
                     A                      A                      A
 Frequencies --  1270.3173              1287.0911              1288.6124
 Red. masses --     1.2252                 1.2682                 1.2344
 Frc consts  --     1.1649                 1.2378                 1.2076
 IR Inten    --     4.9644                 4.7551                 4.3839
 Raman Activ --     2.2339                 1.7756                 2.5447

                    85                     86                     87
                     A                      A                      A
 Frequencies --  1296.9736              1300.7318              1313.1594
 Red. masses --     1.3196                 1.1701                 1.3960
 Frc consts  --     1.3079                 1.1664                 1.4183
 IR Inten    --    23.7644                 8.8082                19.8980
 Raman Activ --     0.9013                 2.0815                 6.1744

                    88                     89                     90
                     A                      A                      A
 Frequencies --  1313.8773              1324.9340              1327.5936
 Red. masses --     1.3138                 1.4516                 1.5604
 Frc consts  --     1.3362                 1.5014                 1.6204
 IR Inten    --     7.0880                 9.6398                25.0065
 Raman Activ --     0.8749                 3.1122                 6.3069

                    91                     92                     93
                     A                      A                      A
 Frequencies --  1330.3002              1341.4423              1343.4580
 Red. masses --     1.2225                 1.3814                 1.1685
 Frc consts  --     1.2746                 1.4646                 1.2426
 IR Inten    --    32.4585                11.2640                26.3663
 Raman Activ --     4.1826                 5.1270                 3.8219

                    94                     95                     96
                     A                      A                      A
 Frequencies --  1349.2273              1362.3464              1367.5912
 Red. masses --     1.2823                 1.2319                 1.5648
 Frc consts  --     1.3753                 1.3471                 1.7243
 IR Inten    --    15.6388                28.4276                 5.4511
 Raman Activ --     1.0844                 1.8462                 0.5449

                    97                     98                     99
                     A                      A                      A
 Frequencies --  1379.0587              1392.2476              1404.1842
 Red. masses --     1.4652                 1.6262                 1.2185
 Frc consts  --     1.6417                 1.8572                 1.4156
 IR Inten    --    17.9218                22.2788                18.2319
 Raman Activ --     4.4284                 5.6949                 8.6749

                   100                    101                    102
                     A                      A                      A
 Frequencies --  1419.5727              1432.8509              1443.3989
 Red. masses --     1.2738                 1.1591                 1.5278
 Frc consts  --     1.5124                 1.4021                 1.8754
 IR Inten    --    12.4043                69.2498                24.9966
 Raman Activ --     3.6734                 3.5149                 2.7451

                   103                    104                    105
                     A                      A                      A
 Frequencies --  1452.1857              1453.8924              1458.9699
 Red. masses --     1.3679                 1.1109                 1.2157
 Frc consts  --     1.6996                 1.3835                 1.5247
 IR Inten    --     9.0001                11.3406                 8.1045
 Raman Activ --     3.2089                 6.2015                 2.3691

                   106                    107                    108
                     A                      A                      A
 Frequencies --  1462.1851              1486.1495              3256.5156
 Red. masses --     1.2098                 1.3938                 1.0585
 Frc consts  --     1.5240                 1.8138                 6.6137
 IR Inten    --     9.7646                63.4080                46.6888
 Raman Activ --     6.8467                 2.5519                90.3923

                   109                    110                    111
                     A                      A                      A
 Frequencies --  3256.7174              3260.7693              3271.1458
 Red. masses --     1.0835                 1.0834                 1.0809
 Frc consts  --     6.7709                 6.7869                 6.8144
 IR Inten    --    21.1907                 9.5348                17.1629
 Raman Activ --    39.5205                14.7039               153.5210

                   112                    113                    114
                     A                      A                      A
 Frequencies --  3273.3782              3277.3622              3281.1809
 Red. masses --     1.0600                 1.0833                 1.0828
 Frc consts  --     6.6920                 6.8556                 6.8681
 IR Inten    --    17.2435                 2.7298                 4.5560
 Raman Activ --    30.4760                56.0026               105.6780

                   115                    116                    117
                     A                      A                      A
 Frequencies --  3285.5317              3289.1872              3301.1292
 Red. masses --     1.0841                 1.0841                 1.0912
 Frc consts  --     6.8950                 6.9106                 7.0060
 IR Inten    --    19.5046                 4.5566                 5.0242
 Raman Activ --     6.7033                94.0360                46.9838

                   118                    119                    120
                     A                      A                      A
 Frequencies --  3303.5338              3306.4910              3313.7556
 Red. masses --     1.0865                 1.0993                 1.0875
 Frc consts  --     6.9859                 7.0812                 7.0357
 IR Inten    --    71.1696                28.9997                33.1386
 Raman Activ --     5.2023                60.5894                13.3506

                   121                    122                    123
                     A                      A                      A
 Frequencies --  3335.7853              3336.8823              3358.2817
 Red. masses --     1.0828                 1.0792                 1.0671
 Frc consts  --     7.0987                 7.0800                 7.0907
 IR Inten    --   151.2017               237.2424                17.3678
 Raman Activ --   129.7894               110.4636               229.9934

                   124                    125                    126
                     A                      A                      A
 Frequencies --  3362.0268              3369.2265              3377.8762
 Red. masses --     1.0802                 1.0679                 1.0658
 Frc consts  --     7.1936                 7.1423                 7.1646
 IR Inten    --    10.4075                57.2169                67.3102
 Raman Activ --    55.8196               172.6196               105.5924

                   127                    128                    129
                     A                      A                      A
 Frequencies --  3382.7692              3888.4751              3888.6078
 Red. masses --     1.0658                 1.0674                 1.0674
 Frc consts  --     7.1859                 9.5093                 9.5094
 IR Inten    --    42.3587               114.0905                27.0530
 Raman Activ --    77.7292                36.8656               178.9360

 - Thermochemistry -
 -------------------
 Temperature   298.150 Kelvin.  Pressure   1.00000 Atm.
 Atom     1 has atomic number  8 and mass  15.99491

 Molecular mass:   342.11621 amu.
 Principal axes and moments of inertia in atomic units:
                           1         2         3
     Eigenvalues --  4693.22466********************
           X            0.99999  -0.00465  -0.00241
           Y            0.00465   0.99999  -0.00057
           Z            0.00241   0.00056   1.00000
 This molecule is an asymmetric top.
 Rotational symmetry number  1.
 Warning -- assumption of classical behavior for rotation
           may cause significant error
 Rotational temperatures (Kelvin)      0.01846     0.00751     0.00558
 Rotational constants (GHZ):           0.38454     0.15654     0.11629
    7 imaginary frequencies ignored.
 Zero-point vibrational energy     973653.3 (Joules/Mol)
                                  232.70872 (Kcal/Mol)
 Warning -- explicit consideration of  32 degrees of freedom as
           vibrations may cause significant error
 Vibrational temperatures:     58.51    81.93    97.28   145.86   174.99
          (Kelvin)            204.48   224.38   261.22   300.57   306.93
                              364.56   399.61   409.00   431.28   455.11
                              476.39   486.02   492.61   530.88   556.19
                              609.96   623.53   645.02   654.72   694.58
                              715.33   784.23   791.25   806.59   852.24
                              863.95   887.19   950.56   975.75   977.31
                             1006.03  1030.82  1033.15  1057.88  1188.84
                             1220.82  1253.74  1386.74  1396.01  1406.91
                             1414.52  1420.95  1446.67  1460.05  1476.01
                             1478.95  1504.61  1510.77  1516.66  1524.26
                             1539.50  1552.78  1570.96  1583.19  1585.05
                             1596.59  1604.28  1611.62  1636.64  1656.25
                             1678.79  1682.71  1694.23  1702.19  1711.37
                             1743.35  1765.58  1789.17  1818.73  1827.70
                             1851.83  1854.02  1866.05  1871.46  1889.34
                             1890.37  1906.28  1910.11  1914.00  1930.03
                             1932.93  1941.23  1960.11  1967.66  1984.16
                             2003.13  2020.31  2042.45  2061.55  2076.73
                             2089.37  2091.82  2099.13  2103.76  2138.24
                             4685.39  4685.68  4691.51  4706.44  4709.66
                             4715.39  4720.88  4727.14  4732.40  4749.58
                             4753.04  4757.30  4767.75  4799.45  4801.02
                             4831.81  4837.20  4847.56  4860.00  4867.04
                             5594.64  5594.83

 Zero-point correction=                           0.370845 (Hartree/Particle)
 Thermal correction to Energy=                    0.389192
 Thermal correction to Enthalpy=                  0.390136
 Thermal correction to Gibbs Free Energy=         0.325033
 Sum of electronic and zero-point Energies=          -1297.607117
 Sum of electronic and thermal Energies=             -1297.588769
 Sum of electronic and thermal Enthalpies=           -1297.587825
 Sum of electronic and thermal Free Energies=        -1297.652929

                     E (Thermal)             CV                S
                      KCal/Mol        Cal/Mol-Kelvin    Cal/Mol-Kelvin
 Total                  244.222             75.961            137.022
 Electronic               0.000              0.000              0.000
 Translational            0.889              2.981             43.384
 Rotational               0.889              2.981             35.084
 Vibrational            242.444             70.000             58.554
 Vibration     1          0.594              1.981              5.226
 Vibration     2          0.596              1.975              4.560
 Vibration     3          0.598              1.970              4.222
 Vibration     4          0.604              1.948              3.428
 Vibration     5          0.609              1.931              3.074
 Vibration     6          0.616              1.911              2.775
 Vibration     7          0.620              1.896              2.598
 Vibration     8          0.630              1.865              2.312
 Vibration     9          0.642              1.827              2.053
 Vibration    10          0.644              1.821              2.015
 Vibration    11          0.665              1.757              1.707
 Vibration    12          0.679              1.715              1.548
 Vibration    13          0.683              1.703              1.508
 Vibration    14          0.692              1.674              1.418
 Vibration    15          0.703              1.642              1.329
 Vibration    16          0.713              1.613              1.255
 Vibration    17          0.718              1.600              1.223
 Vibration    18          0.722              1.591              1.201
 Vibration    19          0.741              1.536              1.084
 Vibration    20          0.755              1.499              1.013
 Vibration    21          0.786              1.418              0.879
 Vibration    22          0.794              1.398              0.848
 Vibration    23          0.807              1.365              0.801
 Vibration    24          0.813              1.350              0.781
 Vibration    25          0.839              1.288              0.703
 Vibration    26          0.853              1.256              0.665
 Vibration    27          0.900              1.150              0.554
 Vibration    28          0.905              1.140              0.544
 Vibration    29          0.916              1.117              0.523
 Vibration    30          0.950              1.048              0.463
 Vibration    31          0.959              1.031              0.449
 Vibration    32          0.976              0.997              0.422

 Normal termination of Gaussian 09 at Mon Apr  4 22:03:09 2016.
