 Gaussian 09, Revision B.01,
 Gaussian 09:  EM64L-G09RevB.01 12-Aug-2010

 ------------------------------------------------
 # freq=raman b3lyp/6-31+g(d,p) geom=connectivity
 ------------------------------------------------

 ------------
 280 5000.com
 ------------
 Symbolic Z-matrix:
 Charge =  0 Multiplicity = 1

                         Standard orientation:
 ---------------------------------------------------------------------
 Center     Atomic      Atomic             Coordinates (Angstroms)
 Number     Number       Type             X           Y           Z
 ---------------------------------------------------------------------
      1          8           0        5.014884   -0.305438   -0.399032
      2          6           0        3.762909   -0.087996    0.267337
      3          6           0        3.251274    1.246957   -0.250416
      4          8           0        4.193326    2.275451    0.084467
      5          1           0        5.106390    1.882092   -0.023371
      6          6           0        1.802191    1.524238    0.113667
      7          8           0        1.360196    2.709291   -0.565362
      8          1           0        0.543024    3.110956   -0.149991
      9          6           0        3.018099   -2.546195    0.270944
     10          8           0        4.210517   -3.242281   -0.118813
     11          1           0        3.996088   -4.185861   -0.373575
     12          6           0        2.759007   -1.126200   -0.207894
     13          8           0        1.408093   -0.857407    0.195177
     14          6           0        0.866021    0.388749   -0.265684
     15          8           0       -0.305968    0.381342    0.562334
     16          6           0       -1.564363    0.106143   -0.070335
     17          6           0       -2.101653   -1.242577    0.381543
     18          8           0       -1.065116   -2.173626    0.038673
     19          1           0       -0.170980   -1.831648    0.324985
     20          6           0       -3.458312   -1.560269   -0.225253
     21          8           0       -3.872174   -2.818250    0.327133
     22          1           0       -4.749919   -3.069209   -0.080303
     23          6           0       -2.299292    2.707356    0.058549
     24          8           0       -1.150817    3.430462    0.524928
     25          1           0       -1.388521    4.321419    0.910992
     26          6           0       -2.525186    1.224528    0.300225
     27          8           0       -3.689971    0.858236   -0.454706
     28          6           0       -4.321008   -0.335211    0.031106
     29          8           0       -5.556721   -0.422238   -0.693676
     30          1           0        5.681698   -0.553233    0.245605
     31          1           0       -6.273334   -0.609813   -0.083037
     32          1           0       -3.153340    3.209736    0.462427
     33          1           0       -2.329306    2.845514   -1.002069
     34          1           0       -2.759378    1.108090    1.337769
     35          1           0       -1.430037    0.094164   -1.131803
     36          1           0       -2.204188   -1.227160    1.446507
     37          1           0       -3.340814   -1.676785   -1.282381
     38          1           0       -4.519199   -0.241664    1.078421
     39          1           0        2.188584   -3.141436   -0.049203
     40          1           0        3.003216   -2.524138    1.340613
     41          1           0        2.784916   -1.133466   -1.277555
     42          1           0        3.868985   -0.089592    1.332065
     43          1           0        3.269854    1.172901   -1.317689
     44          1           0        1.737157    1.686576    1.169279
     45          1           0        0.630978    0.371085   -1.309400
 ---------------------------------------------------------------------

 SCF Done:  E(RB3LYP) =  -1297.94018285     A.U. after   13 cycles

 The electronic state is 1-A.
 Alpha  occ. eigenvalues --  -19.19783 -19.18864 -19.18770 -19.18686 -19.18014
 Alpha  occ. eigenvalues --  -19.17994 -19.17789 -19.16878 -19.15296 -19.14295
 Alpha  occ. eigenvalues --  -19.14145 -10.31497 -10.30740 -10.26309 -10.26056
 Alpha  occ. eigenvalues --  -10.25435 -10.25385 -10.25367 -10.25234 -10.24672
 Alpha  occ. eigenvalues --  -10.24560 -10.24100 -10.24078  -1.09986  -1.09206
 Alpha  occ. eigenvalues --   -1.05560  -1.05241  -1.03843  -1.03660  -1.02863
 Alpha  occ. eigenvalues --   -1.02249  -1.01547  -1.00242  -0.99807  -0.81715
 Alpha  occ. eigenvalues --   -0.80074  -0.79965  -0.77963  -0.72327  -0.70097
 Alpha  occ. eigenvalues --   -0.67198  -0.64732  -0.63324  -0.62489  -0.61685
 Alpha  occ. eigenvalues --   -0.60121  -0.56432  -0.55668  -0.55512  -0.54560
 Alpha  occ. eigenvalues --   -0.54054  -0.53543  -0.52768  -0.52153  -0.51410
 Alpha  occ. eigenvalues --   -0.50454  -0.49859  -0.48648  -0.48437  -0.46873
 Alpha  occ. eigenvalues --   -0.46528  -0.45176  -0.44097  -0.43537  -0.43034
 Alpha  occ. eigenvalues --   -0.42855  -0.41821  -0.41088  -0.40206  -0.38727
 Alpha  occ. eigenvalues --   -0.38280  -0.38202  -0.37492  -0.36471  -0.35327
 Alpha  occ. eigenvalues --   -0.35186  -0.34784  -0.33912  -0.33504  -0.32994
 Alpha  occ. eigenvalues --   -0.32765  -0.31584  -0.30836  -0.30675  -0.29496
 Alpha  occ. eigenvalues --   -0.29201  -0.28560  -0.28305  -0.27387  -0.26483
 Alpha  occ. eigenvalues --   -0.26156
 Alpha virt. eigenvalues --   -0.02569  -0.02198  -0.01568  -0.00161   0.00124
 Alpha virt. eigenvalues --    0.01158   0.02122   0.02437   0.02898   0.03411
 Alpha virt. eigenvalues --    0.03923   0.04237   0.04789   0.05499   0.05612

 Mulliken atomic charges:
              1
     1  O   -0.543496
     2  C   -0.135824
     3  C    0.057617
     4  O   -0.513145
     5  H    0.357587
     6  C    0.130574
     7  O   -0.555152
     8  H    0.428327
     9  C   -0.203761
    10  O   -0.554322
    11  H    0.358639
    12  C    0.298686
    13  O   -0.392768
    14  C    0.158218
    15  O   -0.312594
    16  C   -0.220908
    17  C    0.026220
    18  O   -0.540911
    19  H    0.419178
    20  C    0.045117
    21  O   -0.495874
    22  H    0.346275
    23  C   -0.115458
    24  O   -0.636992
    25  H    0.394400
    26  C    0.184825
    27  O   -0.317990
    28  C    0.223329
    29  O   -0.543183
    30  H    0.370924
    31  H    0.359986
    32  H    0.132796
    33  H    0.154618
    34  H    0.123870
    35  H    0.133155
    36  H    0.141319
    37  H    0.152910
    38  H    0.121601
    39  H    0.134866
    40  H    0.137969
    41  H    0.133954
    42  H    0.141679
    43  H    0.134108
    44  H    0.146068
    45  H    0.133561
 Sum of Mulliken atomic charges =   0.00000

 Dipole moment (field-independent basis, Debye):
    X=             -3.2939    Y=             -0.0329    Z=              2.8936  Tot=              4.3845
 Quadrupole moment (field-independent basis, Debye-Ang):
   XX=           -118.0007   YY=           -135.1901   ZZ=           -139.1963
   XY=            -15.1348   XZ=             -2.8846   YZ=              9.1240

  Exact polarizability: 228.060   1.901 194.070   0.591   1.065 141.969
 Approx polarizability: 264.754   1.605 248.124   0.675   1.280 231.872

 ******    7 imaginary frequencies (negative Signs) ******

                     1                      2                      3
                     A                      A                      A
 Frequencies --  -342.0093              -298.0717              -283.1991
 Red. masses --     1.1625                 1.6487                 1.6417
 Frc consts  --     0.0801                 0.0863                 0.0776
 IR Inten    --   117.3845                 1.7906                12.9577
 Raman Activ --     1.1998                 0.0266                 0.1307

                     4                      5                      6
                     A                      A                      A
 Frequencies --  -233.3045               -67.5465               -42.5171
 Red. masses --     1.1708                 6.8744                 6.5635
 Frc consts  --     0.0375                 0.0185                 0.0070
 IR Inten    --   109.3460                 1.3951                 0.3331
 Raman Activ --     0.7859                 0.0128                 0.0280

                     7                      8                      9
                     A                      A                      A
 Frequencies --   -11.9791                33.7736                62.7814
 Red. masses --     6.7606                 7.1592                 6.2488
 Frc consts  --     0.0006                 0.0048                 0.0145
 IR Inten    --     1.9057                 0.1734                 1.7962
 Raman Activ --     0.0312                 0.0565                 0.1677

                    10                     11                     12
                     A                      A                      A
 Frequencies --    77.5341                92.8717               116.4880
 Red. masses --     6.7591                 6.7002                 6.1910
 Frc consts  --     0.0239                 0.0340                 0.0495
 IR Inten    --     1.4047                 1.5136                 2.2773
 Raman Activ --     0.0120                 0.1306                 0.0247

                    13                     14                     15
                     A                      A                      A
 Frequencies --   143.3799               167.4989               169.4144
 Red. masses --     5.9028                 7.5031                 5.9594
 Frc consts  --     0.0715                 0.1240                 0.1008
 IR Inten    --     2.8904                 0.0921                 5.4598
 Raman Activ --     0.3064                 0.9632                 0.4251

                    16                     17                     18
                     A                      A                      A
 Frequencies --   190.7172               232.1825               263.6389
 Red. masses --     6.6616                 6.5845                 4.3316
 Frc consts  --     0.1428                 0.2091                 0.1774
 IR Inten    --     0.0285                 1.4521                13.6210
 Raman Activ --     1.2637                 1.0072                 0.2880

                    19                     20                     21
                     A                      A                      A
 Frequencies --   268.0267               287.0019               298.3002
 Red. masses --     5.2801                 5.8504                 5.0061
 Frc consts  --     0.2235                 0.2839                 0.2625
 IR Inten    --     7.8716                 3.5791                 4.9577
 Raman Activ --     0.2565                 0.2237                 0.7367

                    22                     23                     24
                     A                      A                      A
 Frequencies --   308.7644               318.8619               326.1823
 Red. masses --     6.2615                 4.4746                 5.3868
 Frc consts  --     0.3517                 0.2680                 0.3377
 IR Inten    --     0.6619                 3.0529                 4.1229
 Raman Activ --     2.9547                 0.3578                 1.6465

                    25                     26                     27
                     A                      A                      A
 Frequencies --   331.8473               360.3827               374.4461
 Red. masses --     6.7034                 5.8104                 7.1821
 Frc consts  --     0.4349                 0.4446                 0.5933
 IR Inten    --     6.1146                 8.6147                 1.1196
 Raman Activ --     6.8308                 0.1626                 2.1417

                    28                     29                     30
                     A                      A                      A
 Frequencies --   402.6699               415.9676               424.2227
 Red. masses --     3.7441                 5.8793                 5.8587
 Frc consts  --     0.3577                 0.5994                 0.6212
 IR Inten    --     8.5535                 8.2709                 1.0197
 Raman Activ --     2.6878                 2.5312                 3.9947

                    31                     32                     33
                     A                      A                      A
 Frequencies --   435.1494               485.4602               493.5854
 Red. masses --     5.4393                 4.6104                 4.4094
 Frc consts  --     0.6068                 0.6402                 0.6329
 IR Inten    --     0.7709                 5.4558                13.7466
 Raman Activ --     1.7430                 1.8722                 2.0614

                    34                     35                     36
                     A                      A                      A
 Frequencies --   513.4357               525.0099               558.7875
 Red. masses --     3.7666                 3.2513                 4.6267
 Frc consts  --     0.5850                 0.5280                 0.8512
 IR Inten    --    23.8848                 9.0017                14.7388
 Raman Activ --     1.1722                 5.8348                 1.6369

                    37                     38                     39
                     A                      A                      A
 Frequencies --   579.5157               592.9665               610.2863
 Red. masses --     2.5565                 4.0697                 2.0587
 Frc consts  --     0.5059                 0.8431                 0.4518
 IR Inten    --    45.3125                 5.6375                92.0948
 Raman Activ --     0.3381                 0.3902                 2.2454

                    40                     41                     42
                     A                      A                      A
 Frequencies --   624.8949               637.8108               650.1687
 Red. masses --     1.7400                 3.0121                 1.2389
 Frc consts  --     0.4003                 0.7219                 0.3086
 IR Inten    --    30.7743                11.5270               123.5484
 Raman Activ --     1.4633                 0.8916                 1.7001

                    43                     44                     45
                     A                      A                      A
 Frequencies --   712.2003               722.1934               739.2299
 Red. masses --     4.9541                 1.0863                 1.0664
 Frc consts  --     1.4805                 0.3338                 0.3433
 IR Inten    --     9.6610               100.1290                88.6213
 Raman Activ --     1.2031                 2.0549                 1.5508

                    46                     47                     48
                     A                      A                      A
 Frequencies --   794.8346               823.3625               843.8577
 Red. masses --     1.0773                 1.2130                 1.7123
 Frc consts  --     0.4010                 0.4845                 0.7184
 IR Inten    --   130.0132                52.6126                 5.9636
 Raman Activ --     2.9009                 1.3222                 0.6048

                    49                     50                     51
                     A                      A                      A
 Frequencies --   864.4104               923.4001               957.0203
 Red. masses --     1.4481                 5.3175                 4.3053
 Frc consts  --     0.6375                 2.6714                 2.3232
 IR Inten    --    32.0032               119.3719                58.3513
 Raman Activ --     2.0799                 2.2377                 1.2997

                    52                     53                     54
                     A                      A                      A
 Frequencies --   980.2788               994.5668              1002.5951
 Red. masses --     5.5736                 4.4739                 6.1732
 Frc consts  --     3.1556                 2.6074                 3.6561
 IR Inten    --    92.4503                20.4681               162.2378
 Raman Activ --     2.4756                 3.5196                 1.0553

                    55                     56                     57
                     A                      A                      A
 Frequencies --  1014.7888              1021.1230              1029.5485
 Red. masses --     6.0596                 5.4552                 5.6142
 Frc consts  --     3.6766                 3.3514                 3.5062
 IR Inten    --   303.9167                33.3628                87.9148
 Raman Activ --     1.0516                 2.5152                 3.1947

                    58                     59                     60
                     A                      A                      A
 Frequencies --  1051.9650              1067.2210              1067.9619
 Red. masses --     2.7204                 7.9807                 3.6911
 Frc consts  --     1.7737                 5.3555                 2.4804
 IR Inten    --    96.2088               138.8230               211.8391
 Raman Activ --     3.9534                 1.3909                14.6684

                    61                     62                     63
                     A                      A                      A
 Frequencies --  1072.7989              1082.0813              1091.0944
 Red. masses --     4.1614                 4.2019                 2.3687
 Frc consts  --     2.8218                 2.8988                 1.6614
 IR Inten    --   112.4859               107.3219               139.1322
 Raman Activ --     5.7844                 5.8364                 1.4204

                    64                     65                     66
                     A                      A                      A
 Frequencies --  1094.5268              1100.9896              1108.8268
 Red. masses --     4.4160                 2.4563                 3.1909
 Frc consts  --     3.1170                 1.7542                 2.3115
 IR Inten    --    27.2768                54.3479                 9.0066
 Raman Activ --     7.1687                 8.8013                16.7635

                    67                     68                     69
                     A                      A                      A
 Frequencies --  1115.2329              1127.7480              1139.7898
 Red. masses --     2.5636                 2.4803                 1.7573
 Frc consts  --     1.8786                 1.8585                 1.3451
 IR Inten    --    22.9778                16.3182                26.1905
 Raman Activ --     5.4568                 1.2828                 2.7182

                    70                     71                     72
                     A                      A                      A
 Frequencies --  1146.1842              1147.7659              1155.6300
 Red. masses --     2.3632                 1.8643                 2.9404
 Frc consts  --     1.8292                 1.4470                 2.3136
 IR Inten    --    37.8603                 6.4620                41.6189
 Raman Activ --     2.3885                 6.3362                 9.4381

                    73                     74                     75
                     A                      A                      A
 Frequencies --  1169.9003              1178.1172              1195.4216
 Red. masses --     2.2736                 1.6557                 1.3811
 Frc consts  --     1.8335                 1.3540                 1.1629
 IR Inten    --     0.8995                15.2251                15.4941
 Raman Activ --     3.2973                 1.8840                 1.4574

                    76                     77                     78
                     A                      A                      A
 Frequencies --  1196.4121              1211.4763              1219.0461
 Red. masses --     1.4710                 1.6289                 1.2640
 Frc consts  --     1.2406                 1.4086                 1.1067
 IR Inten    --    36.5388                12.4430                 6.9677
 Raman Activ --     1.5879                 3.7064                 0.9497

                    79                     80                     81
                     A                      A                      A
 Frequencies --  1232.0866              1245.5554              1252.3833
 Red. masses --     1.4203                 1.3763                 1.3072
 Frc consts  --     1.2703                 1.2580                 1.2080
 IR Inten    --     1.8652                32.2390                 8.6428
 Raman Activ --     0.9776                 0.7773                 1.2453

                    82                     83                     84
                     A                      A                      A
 Frequencies --  1261.9941              1283.8590              1289.0405
 Red. masses --     1.2202                 1.4169                 1.3268
 Frc consts  --     1.1450                 1.3760                 1.2989
 IR Inten    --    11.1730                17.2005                 8.3970
 Raman Activ --     1.3812                 3.4842                 3.3799

                    85                     86                     87
                     A                      A                      A
 Frequencies --  1294.5590              1299.5568              1305.1314
 Red. masses --     1.2858                 1.2173                 1.2706
 Frc consts  --     1.2696                 1.2113                 1.2751
 IR Inten    --    12.6406                 8.3220                63.4112
 Raman Activ --     2.1799                 0.6887                 3.2682

                    88                     89                     90
                     A                      A                      A
 Frequencies --  1313.3342              1318.5074              1330.1169
 Red. masses --     1.3073                 1.2426                 1.3625
 Frc consts  --     1.3285                 1.2728                 1.4202
 IR Inten    --    27.7793                 2.4352                41.6552
 Raman Activ --     7.0704                16.2144                 2.3097

                    91                     92                     93
                     A                      A                      A
 Frequencies --  1336.9677              1349.6233              1361.3361
 Red. masses --     1.3206                 1.2392                 1.1522
 Frc consts  --     1.3908                 1.3299                 1.2580
 IR Inten    --    11.2812                30.4624                35.8243
 Raman Activ --     5.3711                 3.9482                 4.1251

                    94                     95                     96
                     A                      A                      A
 Frequencies --  1364.0310              1371.2220              1374.5626
 Red. masses --     1.3906                 1.3802                 1.3207
 Frc consts  --     1.5244                 1.5290                 1.4702
 IR Inten    --    14.0355                 9.4152                45.0617
 Raman Activ --     7.7483                 4.8960                 4.5672

                    97                     98                     99
                     A                      A                      A
 Frequencies --  1380.7989              1399.0614              1403.5326
 Red. masses --     1.2421                 1.5969                 1.4944
 Frc consts  --     1.3953                 1.8416                 1.7345
 IR Inten    --    10.8057                 9.8812                 4.7995
 Raman Activ --     9.9611                 5.5758                 4.1505

                   100                    101                    102
                     A                      A                      A
 Frequencies --  1413.0093              1422.0000              1441.4052
 Red. masses --     1.3973                 1.3445                 1.4669
 Frc consts  --     1.6438                 1.6018                 1.7956
 IR Inten    --    41.9714                16.4164                10.3413
 Raman Activ --     1.6399                 0.9571                 1.0022

                   103                    104                    105
                     A                      A                      A
 Frequencies --  1443.5674              1455.6780              1459.1481
 Red. masses --     1.4409                 1.4052                 1.4222
 Frc consts  --     1.7692                 1.7543                 1.7840
 IR Inten    --    30.7062                20.7467                44.9802
 Raman Activ --     1.3005                 4.0037                 1.1779

                   106                    107                    108
                     A                      A                      A
 Frequencies --  1471.0279              1473.7370              3268.1774
 Red. masses --     1.0936                 1.0801                 1.0584
 Frc consts  --     1.3943                 1.3822                 6.6607
 IR Inten    --     4.9271                 4.0088                29.2980
 Raman Activ --     4.7905                 4.5058                81.6066

                   109                    110                    111
                     A                      A                      A
 Frequencies --  3273.8542              3275.7953              3279.5688
 Red. masses --     1.0618                 1.0810                 1.0824
 Frc consts  --     6.7054                 6.8343                 6.8593
 IR Inten    --    49.9961                21.3816                13.3973
 Raman Activ --    79.6278                12.6887                67.7642

                   112                    113                    114
                     A                      A                      A
 Frequencies --  3286.7495              3292.0047              3292.8029
 Red. masses --     1.0841                 1.0836                 1.0838
 Frc consts  --     6.9001                 6.9191                 6.9233
 IR Inten    --     5.7995                37.0953                20.0781
 Raman Activ --     6.1323                45.9579               305.8873

                   115                    116                    117
                     A                      A                      A
 Frequencies --  3303.8363              3305.5837              3314.7245
 Red. masses --     1.0853                 1.0857                 1.0856
 Frc consts  --     6.9797                 6.9895                 7.0274
 IR Inten    --    11.6165                 5.5102                58.3618
 Raman Activ --    34.1029                14.5704                58.9427

                   118                    119                    120
                     A                      A                      A
 Frequencies --  3315.3043              3315.8144              3321.3898
 Red. masses --     1.0729                 1.0878                 1.0873
 Frc consts  --     6.9481                 7.0468                 7.0672
 IR Inten    --   345.9471                10.3864                83.1508
 Raman Activ --   182.4581                33.1513                39.3885

                   121                    122                    123
                     A                      A                      A
 Frequencies --  3325.4199              3328.9793              3342.2616
 Red. masses --     1.1019                 1.1051                 1.0692
 Frc consts  --     7.1795                 7.2156                 7.0371
 IR Inten    --    73.6783                76.3685               653.3201
 Raman Activ --    21.5357                33.3305               145.2166

                   124                    125                    126
                     A                      A                      A
 Frequencies --  3383.7504              3385.5298              3393.8211
 Red. masses --     1.0652                 1.0699                 1.0662
 Frc consts  --     7.1855                 7.2250                 7.2357
 IR Inten    --    40.7284                47.2789                25.6417
 Raman Activ --    88.3639               148.2642               176.9344

                   127                    128                    129
                     A                      A                      A
 Frequencies --  3401.2535              3921.3320              3922.0765
 Red. masses --     1.0691                 1.0676                 1.0675
 Frc consts  --     7.2870                 9.6721                 9.6754
 IR Inten    --    67.4420                76.9668                64.3910
 Raman Activ --   158.6934                91.6899               119.9047

 - Thermochemistry -
 -------------------
 Temperature   298.150 Kelvin.  Pressure   1.00000 Atm.
 Atom     1 has atomic number  8 and mass  15.99491

 Molecular mass:   342.11621 amu.
 Principal axes and moments of inertia in atomic units:
                           1         2         3
     Eigenvalues --  4479.73179********************
           X            0.99997  -0.00777  -0.00098
           Y            0.00777   0.99997   0.00239
           Z            0.00096  -0.00239   1.00000
 This molecule is an asymmetric top.
 Rotational symmetry number  1.
 Warning -- assumption of classical behavior for rotation
           may cause significant error
 Rotational temperatures (Kelvin)      0.01933     0.00699     0.00527
 Rotational constants (GHZ):           0.40287     0.14574     0.10976
    7 imaginary frequencies ignored.
 Zero-point vibrational energy     975760.9 (Joules/Mol)
                                  233.21246 (Kcal/Mol)
 Warning -- explicit consideration of  32 degrees of freedom as
           vibrations may cause significant error
 Vibrational temperatures:     48.59    90.33   111.55   133.62   167.60
          (Kelvin)            206.29   240.99   243.75   274.40   334.06
                              379.32   385.63   412.93   429.19   444.24
                              458.77   469.30   477.45   518.51   538.74
                              579.35   598.48   610.36   626.08   698.47
                              710.16   738.72   755.37   803.97   833.79
                              853.15   878.06   899.08   917.67   935.45
                             1024.70  1039.07  1063.59  1143.59  1184.63
                             1214.12  1243.69  1328.57  1376.94  1410.40
                             1430.96  1442.51  1460.05  1469.17  1481.29
                             1513.54  1535.49  1536.56  1543.52  1556.87
                             1569.84  1574.78  1584.08  1595.35  1604.57
                             1622.58  1639.90  1649.10  1651.38  1662.69
                             1683.22  1695.05  1719.94  1721.37  1743.04
                             1753.93  1772.70  1792.07  1801.90  1815.73
                             1847.18  1854.64  1862.58  1869.77  1877.79
                             1889.59  1897.04  1913.74  1923.60  1941.80
                             1958.66  1962.53  1972.88  1977.69  1986.66
                             2012.93  2019.37  2033.00  2045.94  2073.86
                             2076.97  2094.39  2099.39  2116.48  2120.38
                             4702.17  4710.34  4713.13  4718.56  4728.89
                             4736.45  4737.60  4753.48  4755.99  4769.14
                             4769.98  4770.71  4778.73  4784.53  4789.65
                             4808.76  4868.46  4871.02  4882.95  4893.64
                             5641.92  5642.99

 Zero-point correction=                           0.371648 (Hartree/Particle)
 Thermal correction to Energy=                    0.390188
 Thermal correction to Enthalpy=                  0.391132
 Thermal correction to Gibbs Free Energy=         0.325581
 Sum of electronic and zero-point Energies=          -1297.568535
 Sum of electronic and thermal Energies=             -1297.549995
 Sum of electronic and thermal Enthalpies=           -1297.549051
 Sum of electronic and thermal Free Energies=        -1297.614602

                     E (Thermal)             CV                S
                      KCal/Mol        Cal/Mol-Kelvin    Cal/Mol-Kelvin
 Total                  244.846             76.248            137.964
 Electronic               0.000              0.000              0.000
 Translational            0.889              2.981             43.384
 Rotational               0.889              2.981             35.166
 Vibrational            243.069             70.286             59.414
 Vibration     1          0.594              1.983              5.594
 Vibration     2          0.597              1.972              4.368
 Vibration     3          0.599              1.964              3.952
 Vibration     4          0.602              1.954              3.599
 Vibration     5          0.608              1.936              3.158
 Vibration     6          0.616              1.910              2.758
 Vibration     7          0.624              1.882              2.463
 Vibration     8          0.625              1.880              2.442
 Vibration     9          0.634              1.853              2.221
 Vibration    10          0.653              1.792              1.862
 Vibration    11          0.670              1.740              1.638
 Vibration    12          0.673              1.732              1.609
 Vibration    13          0.684              1.698              1.492
 Vibration    14          0.691              1.677              1.426
 Vibration    15          0.698              1.657              1.369
 Vibration    16          0.705              1.638              1.316
 Vibration    17          0.710              1.623              1.279
 Vibration    18          0.714              1.612              1.251
 Vibration    19          0.735              1.554              1.120
 Vibration    20          0.746              1.525              1.062
 Vibration    21          0.768              1.464              0.953
 Vibration    22          0.779              1.436              0.906
 Vibration    23          0.786              1.418              0.878
 Vibration    24          0.796              1.394              0.842
 Vibration    25          0.842              1.282              0.695
 Vibration    26          0.849              1.264              0.674
 Vibration    27          0.869              1.220              0.625
 Vibration    28          0.880              1.195              0.598
 Vibration    29          0.914              1.120              0.526
 Vibration    30          0.936              1.076              0.486
 Vibration    31          0.951              1.047              0.462
 Vibration    32          0.969              1.010              0.432

 Normal termination of Gaussian 09 at Tue Mar  1 03:18:16 2016.
