 Gaussian 09, Revision B.01,
 Gaussian 09:  EM64L-G09RevB.01 12-Aug-2010

 -------------------------------------------------
 # freq=raman b3lyp/6-31+g(2d,p) geom=connectivity
 -------------------------------------------------

 -----------------
 473 5710/5710.com
 -----------------
 Symbolic Z-matrix:
 Charge =  0 Multiplicity = 1

                         Standard orientation:
 ---------------------------------------------------------------------
 Center     Atomic      Atomic             Coordinates (Angstroms)
 Number     Number       Type             X           Y           Z
 ---------------------------------------------------------------------
      1          8           0       -4.894452   -0.348718    0.584174
      2          6           0       -3.671194   -0.135743   -0.136023
      3          6           0       -3.165885    1.230174    0.300260
      4          8           0       -4.138604    2.128679   -0.251795
      5          1           0       -5.016365    1.928908    0.183901
      6          6           0       -1.779981    1.605162   -0.199548
      7          8           0       -1.460766    2.857808    0.423881
      8          1           0       -0.529619    3.098800    0.151711
      9          6           0       -2.942742   -2.605914   -0.323525
     10          8           0       -3.992945   -3.360292    0.298006
     11          1           0       -3.920497   -4.353732    0.212013
     12          6           0       -2.633885   -1.202700    0.173449
     13          8           0       -1.381912   -0.777294   -0.385371
     14          6           0       -0.852691    0.449842    0.138171
     15          8           0        0.342808    0.602324   -0.641659
     16          6           0        1.487887    0.245354    0.146129
     17          6           0        1.933092   -1.127256   -0.329957
     18          8           0        0.968326   -2.163395   -0.095617
     19          1           0        0.116563   -1.692961   -0.326963
     20          6           0        3.256735   -1.561798    0.277020
     21          8           0        3.754984   -2.685240   -0.464651
     22          1           0        4.674583   -2.913676   -0.147349
     23          6           0        2.249244    2.652113    0.067587
     24          8           0        1.132923    3.384454   -0.457403
     25          1           0        1.316834    4.345235   -0.251453
     26          6           0        2.588261    1.209246   -0.269671
     27          8           0        3.803740    0.876842    0.416188
     28          6           0        4.244367   -0.433180    0.029313
     29          8           0        5.461075   -0.687688    0.745990
     30          1           0        6.169356   -0.862710    0.122046
     31          1           0        4.469987   -0.413022   -1.016435
     32          1           0        3.162425   -1.784178    1.319398
     33          1           0        2.076158   -1.061669   -1.388319
     34          1           0        1.290629    0.273805    1.197405
     35          1           0        2.747102    1.124586   -1.324424
     36          1           0        3.118727    3.223894   -0.181343
     37          1           0       -2.043861   -3.179681   -0.235745
     38          1           0       -3.178419   -2.530190   -1.364497
     39          1           0       -2.521096   -1.250252    1.236425
     40          1           0       -5.608878   -0.505042   -0.037724
     41          1           0       -3.871452   -0.124730   -1.187059
     42          1           0       -3.188317    1.293571    1.368144
     43          1           0       -1.809895    1.735918   -1.261107
     44          1           0       -0.644810    0.386220    1.185853
     45          1           0        2.150183    2.689261    1.132343
 ---------------------------------------------------------------------

 SCF Done:  E(RB3LYP) =  -1297.99420301     A.U. after   13 cycles

 The electronic state is 1-A.
 Alpha  occ. eigenvalues --  -19.19126 -19.18789 -19.18379 -19.18151 -19.17954
 Alpha  occ. eigenvalues --  -19.16624 -19.16249 -19.15917 -19.14454 -19.13914
 Alpha  occ. eigenvalues --  -19.13516 -10.30716 -10.30288 -10.26339 -10.25460
 Alpha  occ. eigenvalues --  -10.25386 -10.25377 -10.24607 -10.24455 -10.24187
 Alpha  occ. eigenvalues --  -10.24043 -10.23722 -10.23576  -1.10695  -1.09105
 Alpha  occ. eigenvalues --   -1.05816  -1.05304  -1.04285  -1.03772  -1.02788
 Alpha  occ. eigenvalues --   -1.02153  -1.01782  -1.00536  -1.00015  -0.82325
 Alpha  occ. eigenvalues --   -0.79698  -0.79211  -0.78311  -0.71879  -0.70033
 Alpha  occ. eigenvalues --   -0.66975  -0.65101  -0.63226  -0.62893  -0.61531
 Alpha  occ. eigenvalues --   -0.60017  -0.56477  -0.55900  -0.55112  -0.54397
 Alpha  occ. eigenvalues --   -0.53891  -0.53490  -0.52862  -0.51778  -0.51222
 Alpha  occ. eigenvalues --   -0.50515  -0.50213  -0.49598  -0.48364  -0.46997
 Alpha  occ. eigenvalues --   -0.46014  -0.45169  -0.44281  -0.43655  -0.43158
 Alpha  occ. eigenvalues --   -0.42192  -0.41708  -0.40728  -0.40365  -0.39716
 Alpha  occ. eigenvalues --   -0.39050  -0.37973  -0.37606  -0.37205  -0.35554
 Alpha  occ. eigenvalues --   -0.35405  -0.34997  -0.34622  -0.33834  -0.33689
 Alpha  occ. eigenvalues --   -0.32909  -0.31376  -0.30866  -0.30449  -0.29736
 Alpha  occ. eigenvalues --   -0.29464  -0.28682  -0.28583  -0.27879  -0.26378
 Alpha  occ. eigenvalues --   -0.26230
 Alpha virt. eigenvalues --   -0.02339  -0.02037  -0.01498   0.00013   0.00345
 Alpha virt. eigenvalues --    0.00972   0.01989   0.02320   0.03302   0.03480
 Alpha virt. eigenvalues --    0.03855   0.04383   0.04919   0.05115   0.05660

 Mulliken atomic charges:
              1
     1  O   -0.551559
     2  C   -0.041668
     3  C    0.270319
     4  O   -0.555311
     5  H    0.342945
     6  C   -0.228495
     7  O   -0.575692
     8  H    0.405116
     9  C   -0.231850
    10  O   -0.545565
    11  H    0.346015
    12  C    0.155268
    13  O   -0.248638
    14  C    0.224651
    15  O   -0.165580
    16  C    0.233138
    17  C    0.050388
    18  O   -0.587944
    19  H    0.397453
    20  C    0.170024
    21  O   -0.531284
    22  H    0.331704
    23  C   -0.329451
    24  O   -0.562819
    25  H    0.359072
    26  C    0.069373
    27  O   -0.276675
    28  C    0.099367
    29  O   -0.549957
    30  H    0.336630
    31  H    0.127654
    32  H    0.134280
    33  H    0.126375
    34  H    0.116028
    35  H    0.126067
    36  H    0.146177
    37  H    0.150418
    38  H    0.137906
    39  H    0.113097
    40  H    0.339160
    41  H    0.124816
    42  H    0.130048
    43  H    0.137779
    44  H    0.126738
    45  H    0.154481
 Sum of Mulliken atomic charges =   0.00000

 Dipole moment (field-independent basis, Debye):
    X=              2.3532    Y=              0.1289    Z=             -1.2192  Tot=              2.6534
 Quadrupole moment (field-independent basis, Debye-Ang):
   XX=           -118.8748   YY=           -133.8409   ZZ=           -141.1860
   XY=             13.6872   XZ=             -1.4458   YZ=              1.5737

  Exact polarizability: 229.782  -1.646 198.240  -0.162   0.684 143.026
 Approx polarizability: 270.288  -1.614 257.548  -0.543   0.349 239.799

 ******    6 imaginary frequencies (negative Signs) ******

                     1                      2                      3
                     A                      A                      A
 Frequencies --  -311.4861              -290.2267              -202.7953
 Red. masses --     1.6986                 1.7673                 1.2456
 Frc consts  --     0.0971                 0.0877                 0.0302
 IR Inten    --     2.9990                 8.1572               106.9696
 Raman Activ --     0.0367                 0.0878                 0.8993

                     4                      5                      6
                     A                      A                      A
 Frequencies --  -173.7520               -55.6042               -36.7874
 Red. masses --     1.2425                 6.8240                 6.0974
 Frc consts  --     0.0221                 0.0124                 0.0049
 IR Inten    --   107.3148                 0.7515                 0.3814
 Raman Activ --     0.8082                 0.0550                 0.0208

                     7                      8                      9
                     A                      A                      A
 Frequencies --    41.4770                54.1063                73.6095
 Red. masses --     6.2268                 6.2094                 5.7698
 Frc consts  --     0.0063                 0.0107                 0.0184
 IR Inten    --     5.3364                 1.1669                 8.1263
 Raman Activ --     0.0832                 0.0482                 0.0865

                    10                     11                     12
                     A                      A                      A
 Frequencies --    92.8259                99.4249               134.4405
 Red. masses --     6.3557                 6.3684                 5.5865
 Frc consts  --     0.0323                 0.0371                 0.0595
 IR Inten    --     0.3618                 2.5152                 1.6914
 Raman Activ --     0.2433                 0.0707                 0.0452

                    13                     14                     15
                     A                      A                      A
 Frequencies --   155.6012               175.7257               196.1887
 Red. masses --     6.3739                 6.9506                 5.9461
 Frc consts  --     0.0909                 0.1265                 0.1348
 IR Inten    --     3.0032                 0.1372                 2.0882
 Raman Activ --     0.3532                 0.3865                 0.8649

                    16                     17                     18
                     A                      A                      A
 Frequencies --   210.1685               233.7717               259.7055
 Red. masses --     6.6788                 6.1881                 4.3980
 Frc consts  --     0.1738                 0.1992                 0.1748
 IR Inten    --     0.3984                 1.2403                23.2981
 Raman Activ --     1.3115                 0.6684                 0.1460

                    19                     20                     21
                     A                      A                      A
 Frequencies --   290.6794               299.3601               307.5888
 Red. masses --     5.3686                 5.2332                 4.9783
 Frc consts  --     0.2673                 0.2763                 0.2775
 IR Inten    --     1.9384                 3.2510                 0.3713
 Raman Activ --     0.5079                 1.9411                 0.3254

                    22                     23                     24
                     A                      A                      A
 Frequencies --   316.5038               325.3113               329.1695
 Red. masses --     6.0622                 5.6958                 4.8677
 Frc consts  --     0.3578                 0.3551                 0.3107
 IR Inten    --     1.3427                 5.7120                 2.2532
 Raman Activ --     2.2706                 3.2862                 1.2075

                    25                     26                     27
                     A                      A                      A
 Frequencies --   342.3736               363.8550               382.7377
 Red. masses --     6.7040                 4.5674                 6.8073
 Frc consts  --     0.4630                 0.3563                 0.5875
 IR Inten    --     8.4293                 4.9095                 0.0783
 Raman Activ --     2.3298                 0.7245                 1.0464

                    28                     29                     30
                     A                      A                      A
 Frequencies --   417.5661               425.8300               436.8936
 Red. masses --     4.0255                 5.8138                 5.2004
 Frc consts  --     0.4135                 0.6211                 0.5848
 IR Inten    --    18.3384                 6.4577                 2.7096
 Raman Activ --     4.0271                 3.9660                 2.6107

                    31                     32                     33
                     A                      A                      A
 Frequencies --   452.2678               490.3751               502.3877
 Red. masses --     5.5506                 4.9838                 3.7414
 Frc consts  --     0.6689                 0.7061                 0.5564
 IR Inten    --     7.5885                 5.3836                11.2286
 Raman Activ --     2.4384                 0.7025                 1.5515

                    34                     35                     36
                     A                      A                      A
 Frequencies --   520.3529               546.5706               571.1127
 Red. masses --     3.6636                 3.1871                 4.3428
 Frc consts  --     0.5845                 0.5610                 0.8346
 IR Inten    --     8.8531                10.5035                 5.3270
 Raman Activ --     3.6472                 2.9937                 1.1561

                    37                     38                     39
                     A                      A                      A
 Frequencies --   592.6861               600.5980               615.9271
 Red. masses --     3.7636                 5.0686                 2.0011
 Frc consts  --     0.7789                 1.0772                 0.4473
 IR Inten    --    29.6280                 4.0030                34.1845
 Raman Activ --     0.5475                 0.5783                 0.6219

                    40                     41                     42
                     A                      A                      A
 Frequencies --   627.5089               643.8498               697.6857
 Red. masses --     1.6359                 3.2014                 5.4748
 Frc consts  --     0.3795                 0.7819                 1.5701
 IR Inten    --    69.3167                64.8735                 6.7500
 Raman Activ --     1.5636                 1.0662                 0.7588

                    43                     44                     45
                     A                      A                      A
 Frequencies --   742.4106               749.3085               766.0862
 Red. masses --     1.0671                 1.0857                 1.0737
 Frc consts  --     0.3465                 0.3592                 0.3713
 IR Inten    --    88.7334               112.3733                97.3878
 Raman Activ --     1.8787                 1.2627                 1.7603

                    46                     47                     48
                     A                      A                      A
 Frequencies --   846.2602               850.8991               857.0479
 Red. masses --     1.7813                 1.3404                 1.1838
 Frc consts  --     0.7516                 0.5718                 0.5123
 IR Inten    --     5.4449                38.1724                52.1788
 Raman Activ --     1.2189                 0.3686                 1.1074

                    49                     50                     51
                     A                      A                      A
 Frequencies --   881.3939               932.4634               961.1013
 Red. masses --     1.2207                 5.9827                 4.9343
 Frc consts  --     0.5587                 3.0649                 2.6854
 IR Inten    --    51.2621               103.8735               113.4260
 Raman Activ --     0.4650                 1.9759                 1.1456

                    52                     53                     54
                     A                      A                      A
 Frequencies --   975.7900               984.9226              1002.1833
 Red. masses --     5.7490                 6.3047                 5.1668
 Frc consts  --     3.2252                 3.6035                 3.0575
 IR Inten    --    22.1631                78.4951               426.4121
 Raman Activ --     3.2592                 0.8839                 2.1480

                    55                     56                     57
                     A                      A                      A
 Frequencies --  1004.3905              1014.6398              1023.5410
 Red. masses --     5.9688                 5.9126                 5.7261
 Frc consts  --     3.5477                 3.5864                 3.5344
 IR Inten    --    37.5056               126.9877               164.6574
 Raman Activ --     1.7356                 3.8237                 3.6201

                    58                     59                     60
                     A                      A                      A
 Frequencies --  1035.2693              1047.1019              1056.5866
 Red. masses --     7.4838                 5.1500                 6.2058
 Frc consts  --     4.7258                 3.3269                 4.0819
 IR Inten    --   296.4151                18.5631               156.7480
 Raman Activ --     0.9749                 3.1890                 3.1178

                    61                     62                     63
                     A                      A                      A
 Frequencies --  1070.6168              1076.5829              1082.3688
 Red. masses --     3.4282                 5.1867                 2.8724
 Frc consts  --     2.3151                 3.5419                 1.9826
 IR Inten    --    12.5887                35.3623                26.3840
 Raman Activ --    18.0881                 4.7947                14.1078

                    64                     65                     66
                     A                      A                      A
 Frequencies --  1085.9093              1098.4276              1100.4516
 Red. masses --     3.0925                 2.1237                 2.6277
 Frc consts  --     2.1485                 1.5097                 1.8748
 IR Inten    --     0.0280                18.4362                88.6675
 Raman Activ --     4.8964                 4.6975                 9.7807

                    67                     68                     69
                     A                      A                      A
 Frequencies --  1109.8053              1121.3235              1125.5805
 Red. masses --     2.4744                 2.6585                 2.5855
 Frc consts  --     1.7956                 1.9695                 1.9300
 IR Inten    --    15.3882                15.9504                 3.3321
 Raman Activ --     9.1018                 3.6782                 4.2588

                    70                     71                     72
                     A                      A                      A
 Frequencies --  1135.8846              1150.3434              1151.8201
 Red. masses --     2.7614                 1.7441                 1.6910
 Frc consts  --     2.0992                 1.3598                 1.3218
 IR Inten    --    13.8940                10.0453                 1.0159
 Raman Activ --     3.8586                 0.7311                 3.8268

                    73                     74                     75
                     A                      A                      A
 Frequencies --  1166.5229              1168.9981              1180.9341
 Red. masses --     1.9393                 1.8744                 2.0675
 Frc consts  --     1.5548                 1.5091                 1.6988
 IR Inten    --     7.5969                10.1827                 6.0645
 Raman Activ --     3.9812                 1.2791                 1.2395

                    76                     77                     78
                     A                      A                      A
 Frequencies --  1198.8817              1210.8340              1219.2542
 Red. masses --     1.2150                 1.4769                 1.2777
 Frc consts  --     1.0289                 1.2757                 1.1191
 IR Inten    --    17.7595                 6.1256                 9.9224
 Raman Activ --     1.6707                 2.1364                 1.6707

                    79                     80                     81
                     A                      A                      A
 Frequencies --  1235.0035              1237.8396              1258.8466
 Red. masses --     1.2489                 1.3220                 1.1720
 Frc consts  --     1.1223                 1.1935                 1.0943
 IR Inten    --    26.4184                 0.9718                29.9347
 Raman Activ --     0.8060                 0.5180                 0.7817

                    82                     83                     84
                     A                      A                      A
 Frequencies --  1264.7620              1281.0074              1283.2417
 Red. masses --     1.1905                 1.2832                 1.3222
 Frc consts  --     1.1220                 1.2406                 1.2829
 IR Inten    --    10.8268                22.6350                33.9140
 Raman Activ --     2.8769                 2.7101                 3.2268

                    85                     86                     87
                     A                      A                      A
 Frequencies --  1289.7207              1301.3621              1304.3027
 Red. masses --     1.3469                 1.2661                 1.3447
 Frc consts  --     1.3200                 1.2634                 1.3478
 IR Inten    --     8.6833                22.8841                17.5154
 Raman Activ --     1.1593                 3.8308                 5.0977

                    88                     89                     90
                     A                      A                      A
 Frequencies --  1314.4802              1317.0012              1322.1953
 Red. masses --     1.3817                 1.3682                 1.2343
 Frc consts  --     1.4066                 1.3982                 1.2713
 IR Inten    --    19.9068                46.3095                11.6342
 Raman Activ --     1.8512                 4.1534                12.0840

                    91                     92                     93
                     A                      A                      A
 Frequencies --  1330.4397              1333.8735              1347.1259
 Red. masses --     1.2261                 1.2946                 1.2987
 Frc consts  --     1.2787                 1.3571                 1.3886
 IR Inten    --    31.0015                 9.6968                32.0412
 Raman Activ --     3.9117                 3.7259                 2.5076

                    94                     95                     96
                     A                      A                      A
 Frequencies --  1364.5691              1365.4738              1375.8124
 Red. masses --     1.4647                 1.1980                 1.3903
 Frc consts  --     1.6069                 1.3161                 1.5505
 IR Inten    --     1.3155                20.9844                15.7985
 Raman Activ --     5.3954                 8.6378                 5.7235

                    97                     98                     99
                     A                      A                      A
 Frequencies --  1389.7010              1393.0944              1401.3939
 Red. masses --     1.3329                 1.5956                 1.4751
 Frc consts  --     1.5166                 1.8245                 1.7068
 IR Inten    --     2.8153                 4.2792                 5.0466
 Raman Activ --     2.9219                 4.6539                 5.6597

                   100                    101                    102
                     A                      A                      A
 Frequencies --  1419.7080              1430.1964              1442.2365
 Red. masses --     1.4990                 1.4034                 1.4046
 Frc consts  --     1.7802                 1.6913                 1.7214
 IR Inten    --    39.3514                14.1572                32.8109
 Raman Activ --     1.3916                 0.6779                 2.2810

                   103                    104                    105
                     A                      A                      A
 Frequencies --  1471.6930              1472.3174              1478.8936
 Red. masses --     1.0871                 1.1186                 1.3151
 Frc consts  --     1.3873                 1.4286                 1.6946
 IR Inten    --     2.3474                14.7530                 4.8270
 Raman Activ --     3.5292                 5.0481                 0.3740

                   106                    107                    108
                     A                      A                      A
 Frequencies --  1519.7226              1565.1645              3254.5366
 Red. masses --     1.2503                 1.2150                 1.0602
 Frc consts  --     1.7014                 1.7536                 6.6160
 IR Inten    --    44.1132                48.7837                84.7085
 Raman Activ --     1.0291                 1.1731                37.6681

                   109                    110                    111
                     A                      A                      A
 Frequencies --  3255.6946              3262.5377              3273.0386
 Red. masses --     1.0586                 1.0702                 1.0822
 Frc consts  --     6.6112                 6.7116                 6.8307
 IR Inten    --    20.7668               350.0974                28.5097
 Raman Activ --    78.2996               231.1780                19.4995

                   112                    113                    114
                     A                      A                      A
 Frequencies --  3275.4854              3276.4971              3279.2302
 Red. masses --     1.0827                 1.0811                 1.0741
 Frc consts  --     6.8443                 6.8383                 6.8052
 IR Inten    --    30.0054                43.6200               534.4567
 Raman Activ --    68.9251               174.0871                75.6090

                   115                    116                    117
                     A                      A                      A
 Frequencies --  3284.1752              3285.0795              3290.3499
 Red. masses --     1.0819                 1.0831                 1.0838
 Frc consts  --     6.8755                 6.8865                 6.9136
 IR Inten    --   105.2483                98.0157               174.4459
 Raman Activ --   229.4833                 9.0155                71.9081

                   118                    119                    120
                     A                      A                      A
 Frequencies --  3294.4972              3301.0920              3305.6802
 Red. masses --     1.0863                 1.0872                 1.0903
 Frc consts  --     6.9466                 6.9801                 7.0196
 IR Inten    --    26.1208                41.1250                 6.7006
 Raman Activ --     7.5428                12.7677                23.0206

                   121                    122                    123
                     A                      A                      A
 Frequencies --  3306.4103              3311.1077              3312.4639
 Red. masses --     1.0960                 1.0997                 1.0932
 Frc consts  --     7.0598                 7.1036                 7.0671
 IR Inten    --    10.3079                12.1820               145.5039
 Raman Activ --    42.2275                40.0401                22.2687

                   124                    125                    126
                     A                      A                      A
 Frequencies --  3366.0037              3372.0628              3374.7692
 Red. masses --     1.0651                 1.0689                 1.0658
 Frc consts  --     7.1099                 7.1610                 7.1520
 IR Inten    --    34.6131                65.9654                36.3534
 Raman Activ --   112.2552               176.0122               134.8132

                   127                    128                    129
                     A                      A                      A
 Frequencies --  3375.7002              3888.2765              3889.5080
 Red. masses --     1.0665                 1.0676                 1.0676
 Frc consts  --     7.1602                 9.5096                 9.5156
 IR Inten    --    56.9562                75.5908                72.1462
 Raman Activ --   146.3449                86.0799               107.3504

 - Thermochemistry -
 -------------------
 Temperature   298.150 Kelvin.  Pressure   1.00000 Atm.
 Atom     1 has atomic number  8 and mass  15.99491

 Molecular mass:   342.11621 amu.
 Principal axes and moments of inertia in atomic units:
                           1         2         3
     Eigenvalues --  4534.64836********************
           X            0.99997   0.00742  -0.00059
           Y           -0.00742   0.99997   0.00294
           Z            0.00061  -0.00293   1.00000
 This molecule is an asymmetric top.
 Rotational symmetry number  1.
 Warning -- assumption of classical behavior for rotation
           may cause significant error
 Rotational temperatures (Kelvin)      0.01910     0.00729     0.00543
 Rotational constants (GHZ):           0.39799     0.15185     0.11310
    6 imaginary frequencies ignored.
 Zero-point vibrational energy     977095.1 (Joules/Mol)
                                  233.53134 (Kcal/Mol)
 Warning -- explicit consideration of  33 degrees of freedom as
           vibrations may cause significant error
 Vibrational temperatures:     59.68    77.85   105.91   133.56   143.05
          (Kelvin)            193.43   223.88   252.83   282.27   302.39
                              336.34   373.66   418.22   430.71   442.55
                              455.38   468.05   473.60   492.60   523.51
                              550.67   600.78   612.67   628.59   650.71
                              705.54   722.82   748.67   786.39   821.70
                              852.74   864.13   886.18   902.84   926.36
                             1003.81  1068.16  1078.09  1102.23  1217.58
                             1224.25  1233.10  1268.13  1341.61  1382.81
                             1403.94  1417.08  1441.92  1445.09  1459.84
                             1472.65  1489.52  1506.54  1520.19  1540.38
                             1548.96  1557.29  1562.38  1580.39  1583.30
                             1596.76  1613.33  1619.46  1634.28  1655.09
                             1657.21  1678.36  1681.93  1699.10  1724.92
                             1742.12  1754.23  1776.89  1780.97  1811.20
                             1819.71  1843.08  1846.30  1855.62  1872.37
                             1876.60  1891.24  1894.87  1902.34  1914.20
                             1919.14  1938.21  1963.31  1964.61  1979.48
                             1999.47  2004.35  2016.29  2042.64  2057.73
                             2075.05  2117.44  2118.33  2127.80  2186.54
                             2251.92  4682.55  4684.21  4694.06  4709.17
                             4712.69  4714.14  4718.07  4725.19  4726.49
                             4734.07  4740.04  4749.53  4756.13  4757.18
                             4763.94  4765.89  4842.92  4851.64  4855.53
                             4856.87  5594.36  5596.13

 Zero-point correction=                           0.372156 (Hartree/Particle)
 Thermal correction to Energy=                    0.391031
 Thermal correction to Enthalpy=                  0.391975
 Thermal correction to Gibbs Free Energy=         0.325740
 Sum of electronic and zero-point Energies=          -1297.622047
 Sum of electronic and thermal Energies=             -1297.603172
 Sum of electronic and thermal Enthalpies=           -1297.602228
 Sum of electronic and thermal Free Energies=        -1297.668463

                     E (Thermal)             CV                S
                      KCal/Mol        Cal/Mol-Kelvin    Cal/Mol-Kelvin
 Total                  245.376             77.327            139.403
 Electronic               0.000              0.000              0.000
 Translational            0.889              2.981             43.384
 Rotational               0.889              2.981             35.107
 Vibrational            243.598             71.365             60.912
 Vibration     1          0.594              1.981              5.187
 Vibration     2          0.596              1.976              4.661
 Vibration     3          0.599              1.966              4.054
 Vibration     4          0.602              1.954              3.600
 Vibration     5          0.604              1.950              3.466
 Vibration     6          0.613              1.919              2.882
 Vibration     7          0.620              1.896              2.603
 Vibration     8          0.628              1.872              2.373
 Vibration     9          0.636              1.845              2.169
 Vibration    10          0.642              1.825              2.042
 Vibration    11          0.654              1.789              1.850
 Vibration    12          0.668              1.746              1.664
 Vibration    13          0.687              1.691              1.470
 Vibration    14          0.692              1.675              1.420
 Vibration    15          0.697              1.659              1.375
 Vibration    16          0.703              1.642              1.328
 Vibration    17          0.709              1.625              1.283
 Vibration    18          0.712              1.617              1.264
 Vibration    19          0.722              1.591              1.201
 Vibration    20          0.737              1.547              1.106
 Vibration    21          0.752              1.507              1.028
 Vibration    22          0.781              1.432              0.900
 Vibration    23          0.788              1.414              0.872
 Vibration    24          0.797              1.390              0.836
 Vibration    25          0.811              1.356              0.789
 Vibration    26          0.846              1.271              0.683
 Vibration    27          0.858              1.245              0.652
 Vibration    28          0.875              1.205              0.609
 Vibration    29          0.902              1.147              0.551
 Vibration    30          0.927              1.094              0.502
 Vibration    31          0.950              1.047              0.462
 Vibration    32          0.959              1.031              0.449
 Vibration    33          0.976              0.998              0.423

 Normal termination of Gaussian 09 at Tue Mar 29 00:39:36 2016.
