 Gaussian 09, Revision B.01,
 Gaussian 09:  EM64L-G09RevB.01 12-Aug-2010

 -------------------------------------------------
 # freq=raman b3lyp/6-31+g(2d,p) geom=connectivity
 -------------------------------------------------

 -----------------
 300 8274/8274.com
 -----------------
 Symbolic Z-matrix:
 Charge =  0 Multiplicity = 1

                         Standard orientation:
 ---------------------------------------------------------------------
 Center     Atomic      Atomic             Coordinates (Angstroms)
 Number     Number       Type             X           Y           Z
 ---------------------------------------------------------------------
      1          8           0        5.004278   -0.307827   -0.501737
      2          6           0        3.713962   -0.006315    0.049115
      3          6           0        3.116577    1.317009   -0.400285
      4          8           0        4.065909    2.377600   -0.216570
      5          1           0        4.935843    2.007046   -0.540795
      6          6           0        1.782857    1.621275    0.262275
      7          8           0        1.085405    2.733153   -0.317475
      8          1           0        0.475168    3.050766    0.408895
      9          6           0        3.135486   -2.497207    0.226698
     10          8           0        4.338815   -3.072533   -0.303929
     11          1           0        4.431057   -4.056704   -0.154552
     12          6           0        2.689409   -1.104153   -0.183247
     13          8           0        1.516055   -0.844040    0.601534
     14          6           0        0.906755    0.382772    0.175343
     15          8           0       -0.363292    0.466088    0.839263
     16          6           0       -1.482885    0.186258   -0.014494
     17          6           0       -1.933138   -1.231209    0.299775
     18          8           0       -0.955905   -2.254082    0.055672
     19          1           0       -0.091941   -1.974869    0.473876
     20          6           0       -3.278660   -1.608345   -0.296974
     21          8           0       -3.682826   -2.713035    0.524810
     22          1           0       -4.606274   -3.028862    0.307811
     23          6           0       -2.452546    2.631533   -0.051507
     24          8           0       -1.425921    3.377815    0.617147
     25          1           0       -1.480688    4.345729    0.371540
     26          6           0       -2.633031    1.148627    0.232120
     27          8           0       -3.685527    0.738545   -0.653489
     28          6           0       -4.274590   -0.469690   -0.151049
     29          8           0       -5.479233   -0.703415   -0.896429
     30          1           0       -6.218537   -0.791432   -0.290391
     31          1           0        5.638828   -0.416371    0.210418
     32          1           0        2.336062   -3.165421   -0.016838
     33          1           0        3.235023   -2.492384    1.292048
     34          1           0        2.420773   -1.115395   -1.218915
     35          1           0        3.848513    0.065554    1.108186
     36          1           0        2.933094    1.237832   -1.451458
     37          1           0        1.961299    1.837214    1.294956
     38          1           0        0.687773    0.257172   -0.864451
     39          1           0       -3.383860    3.109828    0.169374
     40          1           0       -2.280791    2.732247   -1.102819
     41          1           0       -2.966708    1.031379    1.241978
     42          1           0       -1.177439    0.246950   -1.038173
     43          1           0       -2.086199   -1.241581    1.358720
     44          1           0       -3.176938   -1.906238   -1.319623
     45          1           0       -4.517288   -0.341959    0.883205
 ---------------------------------------------------------------------

 SCF Done:  E(RB3LYP) =  -1297.99173570     A.U. after   13 cycles

 The electronic state is 1-A.
 Alpha  occ. eigenvalues --  -19.18700 -19.18145 -19.17809 -19.17696 -19.17598
 Alpha  occ. eigenvalues --  -19.17094 -19.15930 -19.15754 -19.15201 -19.14913
 Alpha  occ. eigenvalues --  -19.14154 -10.30521 -10.29919 -10.26061 -10.25673
 Alpha  occ. eigenvalues --  -10.25177 -10.24982 -10.24909 -10.24854 -10.24568
 Alpha  occ. eigenvalues --  -10.24478 -10.24089 -10.23673  -1.09786  -1.09029
 Alpha  occ. eigenvalues --   -1.05308  -1.04558  -1.03950  -1.03500  -1.02917
 Alpha  occ. eigenvalues --   -1.02428  -1.01972  -1.01011  -1.00336  -0.81526
 Alpha  occ. eigenvalues --   -0.80648  -0.79034  -0.78243  -0.71726  -0.70124
 Alpha  occ. eigenvalues --   -0.67113  -0.64963  -0.63095  -0.62388  -0.61360
 Alpha  occ. eigenvalues --   -0.60384  -0.56170  -0.55384  -0.54814  -0.54285
 Alpha  occ. eigenvalues --   -0.54038  -0.53141  -0.53014  -0.52038  -0.51704
 Alpha  occ. eigenvalues --   -0.50245  -0.49562  -0.49301  -0.48903  -0.46164
 Alpha  occ. eigenvalues --   -0.45670  -0.45022  -0.44339  -0.43815  -0.43061
 Alpha  occ. eigenvalues --   -0.42766  -0.41906  -0.41416  -0.39874  -0.39347
 Alpha  occ. eigenvalues --   -0.38923  -0.37675  -0.36583  -0.36000  -0.35508
 Alpha  occ. eigenvalues --   -0.35165  -0.34819  -0.34489  -0.34050  -0.33824
 Alpha  occ. eigenvalues --   -0.32803  -0.31719  -0.30899  -0.30219  -0.29944
 Alpha  occ. eigenvalues --   -0.29165  -0.28644  -0.28344  -0.27904  -0.26764
 Alpha  occ. eigenvalues --   -0.26310
 Alpha virt. eigenvalues --   -0.02161  -0.01907  -0.01759  -0.00035   0.00680
 Alpha virt. eigenvalues --    0.01089   0.02034   0.02403   0.03076   0.03678
 Alpha virt. eigenvalues --    0.03838   0.04445   0.05092   0.05351   0.05630

 Mulliken atomic charges:
              1
     1  O   -0.546290
     2  C   -0.150657
     3  C    0.403425
     4  O   -0.564506
     5  H    0.346759
     6  C   -0.293544
     7  O   -0.489477
     8  H    0.371636
     9  C   -0.261227
    10  O   -0.545065
    11  H    0.345910
    12  C    0.293587
    13  O   -0.290568
    14  C    0.400607
    15  O   -0.247776
    16  C    0.272344
    17  C   -0.025681
    18  O   -0.565010
    19  H    0.371014
    20  C    0.273160
    21  O   -0.540184
    22  H    0.329521
    23  C   -0.317760
    24  O   -0.559259
    25  H    0.351829
    26  C   -0.033238
    27  O   -0.246527
    28  C    0.004592
    29  O   -0.543208
    30  H    0.333770
    31  H    0.346384
    32  H    0.147763
    33  H    0.142328
    34  H    0.115083
    35  H    0.114525
    36  H    0.116628
    37  H    0.125994
    38  H    0.096920
    39  H    0.146797
    40  H    0.156847
    41  H    0.113049
    42  H    0.114328
    43  H    0.123778
    44  H    0.135222
    45  H    0.126173
 Sum of Mulliken atomic charges =   0.00000

 Dipole moment (field-independent basis, Debye):
    X=             -1.9813    Y=             -0.0163    Z=              2.3651  Tot=              3.0854
 Quadrupole moment (field-independent basis, Debye-Ang):
   XX=           -113.6975   YY=           -133.2260   ZZ=           -142.7704
   XY=            -13.4920   XZ=              0.1074   YZ=              0.4348

  Exact polarizability: 231.403   0.245 197.596   0.393  -0.429 143.544
 Approx polarizability: 271.983  -0.845 256.076   0.545  -0.262 241.620

 ******    6 imaginary frequencies (negative Signs) ******

                     1                      2                      3
                     A                      A                      A
 Frequencies --  -296.4338              -271.5340              -241.5071
 Red. masses --     1.7643                 1.7750                 1.2102
 Frc consts  --     0.0913                 0.0771                 0.0416
 IR Inten    --    10.4245                 4.6298                98.3434
 Raman Activ --     0.0652                 0.0656                 0.7979

                     4                      5                      6
                     A                      A                      A
 Frequencies --  -211.3945               -65.6046               -18.4247
 Red. masses --     1.2154                 6.6329                 6.4571
 Frc consts  --     0.0320                 0.0168                 0.0013
 IR Inten    --    97.0136                 0.3142                 0.3950
 Raman Activ --     0.7360                 0.0411                 0.0374

                     7                      8                      9
                     A                      A                      A
 Frequencies --    23.5663                47.6700                73.0374
 Red. masses --     6.7227                 6.3128                 6.1896
 Frc consts  --     0.0022                 0.0085                 0.0195
 IR Inten    --     0.2415                 1.4916                 5.0480
 Raman Activ --     0.1123                 0.0650                 0.0922

                    10                     11                     12
                     A                      A                      A
 Frequencies --    93.8102               104.6964               149.5577
 Red. masses --     6.5736                 5.7296                 6.0456
 Frc consts  --     0.0341                 0.0370                 0.0797
 IR Inten    --     0.2469                 5.6231                 0.5644
 Raman Activ --     0.0912                 0.0554                 0.1593

                    13                     14                     15
                     A                      A                      A
 Frequencies --   161.3953               184.5382               190.0082
 Red. masses --     6.2622                 6.9617                 5.9959
 Frc consts  --     0.0961                 0.1397                 0.1275
 IR Inten    --     4.4003                 0.2044                 0.6740
 Raman Activ --     0.3979                 1.0420                 0.6716

                    16                     17                     18
                     A                      A                      A
 Frequencies --   211.2462               236.4661               272.0939
 Red. masses --     5.7550                 6.4681                 4.7712
 Frc consts  --     0.1513                 0.2131                 0.2081
 IR Inten    --     0.4830                 3.4244                15.3387
 Raman Activ --     0.1521                 1.1467                 0.7063

                    19                     20                     21
                     A                      A                      A
 Frequencies --   284.5646               288.3876               296.1708
 Red. masses --     4.4917                 4.7122                 5.3520
 Frc consts  --     0.2143                 0.2309                 0.2766
 IR Inten    --     2.1026                 2.4165                 1.5573
 Raman Activ --     0.1796                 0.3457                 0.3818

                    22                     23                     24
                     A                      A                      A
 Frequencies --   311.7170               317.0686               321.2886
 Red. masses --     5.8559                 5.5153                 5.9780
 Frc consts  --     0.3352                 0.3267                 0.3636
 IR Inten    --     4.0296                 1.6843                 2.5497
 Raman Activ --     1.5592                 2.2458                 1.4002

                    25                     26                     27
                     A                      A                      A
 Frequencies --   335.3513               363.1127               379.1596
 Red. masses --     6.7650                 4.4298                 7.5350
 Frc consts  --     0.4482                 0.3441                 0.6382
 IR Inten    --     8.3014                 5.1304                 0.5237
 Raman Activ --     4.8376                 0.5714                 4.0573

                    28                     29                     30
                     A                      A                      A
 Frequencies --   406.8330               422.8541               428.6611
 Red. masses --     6.7037                 5.0483                 5.9901
 Frc consts  --     0.6537                 0.5318                 0.6485
 IR Inten    --     7.0324                 3.0087                 0.3961
 Raman Activ --     3.2125                 1.9807                 2.6527

                    31                     32                     33
                     A                      A                      A
 Frequencies --   437.7684               478.8829               490.4935
 Red. masses --     3.5948                 4.3183                 5.5929
 Frc consts  --     0.4059                 0.5835                 0.7928
 IR Inten    --    24.9205                 6.6174                 7.0709
 Raman Activ --     3.5228                 3.5242                 0.6184

                    34                     35                     36
                     A                      A                      A
 Frequencies --   509.8877               529.6787               557.7517
 Red. masses --     3.3513                 3.0295                 3.9378
 Frc consts  --     0.5133                 0.5008                 0.7218
 IR Inten    --    20.4964                17.8830                14.1592
 Raman Activ --     3.6505                 2.0024                 1.7021

                    37                     38                     39
                     A                      A                      A
 Frequencies --   585.2828               593.0358               613.6702
 Red. masses --     3.9320                 4.6526                 5.7628
 Frc consts  --     0.7936                 0.9641                 1.2787
 IR Inten    --    20.3201                13.3733                29.7097
 Raman Activ --     0.4273                 0.7455                 1.7427

                    40                     41                     42
                     A                      A                      A
 Frequencies --   625.1183               643.1842               682.2927
 Red. masses --     3.7097                 1.0803                 5.3333
 Frc consts  --     0.8541                 0.2633                 1.4628
 IR Inten    --    16.5144               126.0887                13.5694
 Raman Activ --     0.3788                 2.2540                 0.5946

                    43                     44                     45
                     A                      A                      A
 Frequencies --   693.9905               728.4144               743.2140
 Red. masses --     1.0970                 1.0605                 1.1090
 Frc consts  --     0.3113                 0.3315                 0.3609
 IR Inten    --   110.1092               104.1632               191.0058
 Raman Activ --     1.9217                 2.1520                 3.2714

                    46                     47                     48
                     A                      A                      A
 Frequencies --   764.2409               779.1427               850.8960
 Red. masses --     1.0691                 1.0675                 1.8129
 Frc consts  --     0.3679                 0.3818                 0.7734
 IR Inten    --    93.7188               120.9735                 1.4472
 Raman Activ --     1.5506                 2.9099                 1.0688

                    49                     50                     51
                     A                      A                      A
 Frequencies --   864.4804               944.8312               956.9560
 Red. masses --     1.7763                 5.7551                 6.0606
 Frc consts  --     0.7821                 3.0270                 3.2700
 IR Inten    --     5.0213               264.2446                 0.5281
 Raman Activ --     0.6944                 3.4546                 1.0454

                    52                     53                     54
                     A                      A                      A
 Frequencies --   976.2828               978.4955               989.4543
 Red. masses --     5.3092                 4.8765                 5.6739
 Frc consts  --     2.9815                 2.7509                 3.2728
 IR Inten    --    62.8111               139.1453               115.3000
 Raman Activ --     1.5599                 2.5143                 1.0965

                    55                     56                     57
                     A                      A                      A
 Frequencies --  1000.3635              1008.8283              1028.1039
 Red. masses --     6.8430                 5.4264                 7.0036
 Frc consts  --     4.0347                 3.2538                 4.3616
 IR Inten    --   193.7591               215.2397                63.8904
 Raman Activ --     2.1726                 1.9988                 2.4427

                    58                     59                     60
                     A                      A                      A
 Frequencies --  1032.9879              1043.7861              1056.1357
 Red. masses --     7.2436                 7.0136                 7.1096
 Frc consts  --     4.5540                 4.5021                 4.6723
 IR Inten    --   328.3807               108.0689                50.0412
 Raman Activ --     1.9508                 1.3187                 0.5171

                    61                     62                     63
                     A                      A                      A
 Frequencies --  1066.8762              1069.4962              1074.1276
 Red. masses --     5.0331                 4.8028                 3.0532
 Frc consts  --     3.3753                 3.2367                 2.0754
 IR Inten    --    45.7826                 4.6671                 8.8454
 Raman Activ --     6.2290                 9.1428                21.5218

                    64                     65                     66
                     A                      A                      A
 Frequencies --  1096.3589              1102.9436              1109.8700
 Red. masses --     2.5987                 3.0998                 2.8627
 Frc consts  --     1.8404                 2.2217                 2.0776
 IR Inten    --   114.0131                55.5086                24.7399
 Raman Activ --     1.3594                 4.2965                 5.6190

                    67                     68                     69
                     A                      A                      A
 Frequencies --  1114.6166              1129.0344              1140.9248
 Red. masses --     2.5110                 2.7029                 3.2145
 Frc consts  --     1.8380                 2.0300                 2.4653
 IR Inten    --    17.0962                22.1482                17.6274
 Raman Activ --     9.6498                 6.7935                 5.1479

                    70                     71                     72
                     A                      A                      A
 Frequencies --  1143.8053              1157.5312              1171.3842
 Red. masses --     1.5404                 2.5295                 1.9442
 Frc consts  --     1.1873                 1.9969                 1.5718
 IR Inten    --    16.8754                 5.2314                25.6280
 Raman Activ --     2.4319                 1.6659                 5.2736

                    73                     74                     75
                     A                      A                      A
 Frequencies --  1176.7100              1180.6852              1190.6984
 Red. masses --     1.9409                 1.4890                 2.1638
 Frc consts  --     1.5834                 1.2230                 1.8075
 IR Inten    --     5.5892                 1.3425                22.5029
 Raman Activ --     1.2431                 0.8672                 1.5820

                    76                     77                     78
                     A                      A                      A
 Frequencies --  1216.1524              1220.3133              1233.7360
 Red. masses --     1.3287                 1.2538                 1.3968
 Frc consts  --     1.1578                 1.1001                 1.2526
 IR Inten    --    14.2653                 9.9309                19.0042
 Raman Activ --     1.7882                 2.9127                 0.7940

                    79                     80                     81
                     A                      A                      A
 Frequencies --  1248.1602              1258.8748              1271.7879
 Red. masses --     1.3505                 1.2158                 1.3201
 Frc consts  --     1.2396                 1.1352                 1.2581
 IR Inten    --     9.7974                22.2737                 8.6150
 Raman Activ --     4.5456                 1.7141                 0.7515

                    82                     83                     84
                     A                      A                      A
 Frequencies --  1282.6286              1288.0581              1290.1306
 Red. masses --     1.1923                 1.3115                 1.3350
 Frc consts  --     1.1557                 1.2820                 1.3092
 IR Inten    --    25.8230                24.3545                25.9904
 Raman Activ --     1.7384                 0.7253                 4.6525

                    85                     86                     87
                     A                      A                      A
 Frequencies --  1298.0455              1303.1261              1311.9761
 Red. masses --     1.2572                 1.2537                 1.2093
 Frc consts  --     1.2481                 1.2543                 1.2264
 IR Inten    --    16.8305                11.6626                20.2208
 Raman Activ --     1.7220                 1.8309                 4.1208

                    88                     89                     90
                     A                      A                      A
 Frequencies --  1316.4107              1323.9904              1329.6333
 Red. masses --     1.1725                 1.2487                 1.2327
 Frc consts  --     1.1972                 1.2897                 1.2840
 IR Inten    --    17.8882                37.3295                24.4979
 Raman Activ --     2.6311                 3.3211                17.3449

                    91                     92                     93
                     A                      A                      A
 Frequencies --  1345.5716              1349.4992              1356.3966
 Red. masses --     1.2778                 1.2283                 1.2452
 Frc consts  --     1.3631                 1.3180                 1.3498
 IR Inten    --    10.8549                37.2666                13.8516
 Raman Activ --     5.3424                 4.7421                 3.0678

                    94                     95                     96
                     A                      A                      A
 Frequencies --  1363.2254              1381.5707              1384.1953
 Red. masses --     1.2576                 1.6390                 1.5266
 Frc consts  --     1.3770                 1.8432                 1.7233
 IR Inten    --    17.3810                 3.6286                 6.9108
 Raman Activ --     4.4047                 5.5136                 2.9671

                    97                     98                     99
                     A                      A                      A
 Frequencies --  1386.7733              1403.8687              1409.7289
 Red. masses --     1.2917                 1.3206                 1.4970
 Frc consts  --     1.4636                 1.5335                 1.7529
 IR Inten    --     9.7763                 1.1208                36.1000
 Raman Activ --     2.9359                 3.8566                 1.1038

                   100                    101                    102
                     A                      A                      A
 Frequencies --  1436.4828              1440.2157              1457.4109
 Red. masses --     1.2913                 1.2978                 1.3601
 Frc consts  --     1.5700                 1.5860                 1.7020
 IR Inten    --    11.2016                 7.2768                51.8129
 Raman Activ --     7.9548                 3.6775                 2.4941

                   103                    104                    105
                     A                      A                      A
 Frequencies --  1466.9527              1474.8539              1475.2641
 Red. masses --     1.2872                 1.0949                 1.1579
 Frc consts  --     1.6320                 1.4033                 1.4847
 IR Inten    --    22.0256                 3.0853                 2.4106
 Raman Activ --     2.6773                 3.1030                 3.0670

                   106                    107                    108
                     A                      A                      A
 Frequencies --  1484.8303              1508.3173              3256.4453
 Red. masses --     1.3550                 1.2532                 1.0580
 Frc consts  --     1.7601                 1.6797                 6.6101
 IR Inten    --    35.2249                47.8375                33.3194
 Raman Activ --     1.6484                 1.7396                77.3949

                   109                    110                    111
                     A                      A                      A
 Frequencies --  3258.9345              3262.3037              3265.6427
 Red. masses --     1.0832                 1.0582                 1.0805
 Frc consts  --     6.7783                 6.6354                 6.7894
 IR Inten    --     5.9787                34.7748                 5.1193
 Raman Activ --     7.4538                86.0751                66.9093

                   112                    113                    114
                     A                      A                      A
 Frequencies --  3266.5071              3268.9040              3270.9668
 Red. masses --     1.0817                 1.0827                 1.0834
 Frc consts  --     6.8003                 6.8165                 6.8297
 IR Inten    --    16.1161                 2.6037                 1.1245
 Raman Activ --    84.9442                42.5333                96.0732

                   115                    116                    117
                     A                      A                      A
 Frequencies --  3280.5358              3281.2139              3289.9801
 Red. masses --     1.0850                 1.0857                 1.0860
 Frc consts  --     6.8800                 6.8867                 6.9260
 IR Inten    --    10.1509                16.3602                 2.1707
 Raman Activ --   180.1231                 7.8227                 6.7712

                   118                    119                    120
                     A                      A                      A
 Frequencies --  3295.0269              3305.4866              3309.3431
 Red. masses --     1.0869                 1.0867                 1.1043
 Frc consts  --     6.9530                 6.9956                 7.1253
 IR Inten    --    65.6209                37.1593                49.3826
 Raman Activ --    11.1187                25.5665                28.2534

                   121                    122                    123
                     A                      A                      A
 Frequencies --  3315.1677              3326.5675              3336.9534
 Red. masses --     1.1052                 1.0675                 1.0669
 Frc consts  --     7.1568                 6.9602                 6.9999
 IR Inten    --    37.0487               249.5280               474.3713
 Raman Activ --    65.3743               229.7817                82.0800

                   124                    125                    126
                     A                      A                      A
 Frequencies --  3367.2522              3367.4082              3368.1571
 Red. masses --     1.0664                 1.0652                 1.0668
 Frc consts  --     7.1237                 7.1167                 7.1305
 IR Inten    --    30.5807                34.4804                53.3004
 Raman Activ --   144.5551               107.2040               146.3469

                   127                    128                    129
                     A                      A                      A
 Frequencies --  3370.2962              3889.5839              3892.0963
 Red. masses --     1.0682                 1.0678                 1.0676
 Frc consts  --     7.1487                 9.5177                 9.5282
 IR Inten    --    59.2110                90.1441                76.4535
 Raman Activ --   207.5265                76.6385               105.8114

 - Thermochemistry -
 -------------------
 Temperature   298.150 Kelvin.  Pressure   1.00000 Atm.
 Atom     1 has atomic number  8 and mass  15.99491

 Molecular mass:   342.11621 amu.
 Principal axes and moments of inertia in atomic units:
                           1         2         3
     Eigenvalues --  4500.50228********************
           X            0.99997  -0.00766  -0.00066
           Y            0.00766   0.99997  -0.00146
           Z            0.00067   0.00146   1.00000
 This molecule is an asymmetric top.
 Rotational symmetry number  1.
 Warning -- assumption of classical behavior for rotation
           may cause significant error
 Rotational temperatures (Kelvin)      0.01925     0.00708     0.00536
 Rotational constants (GHZ):           0.40101     0.14746     0.11166
    6 imaginary frequencies ignored.
 Zero-point vibrational energy     976026.7 (Joules/Mol)
                                  233.27598 (Kcal/Mol)
 Warning -- explicit consideration of  33 degrees of freedom as
           vibrations may cause significant error
 Vibrational temperatures:     33.91    68.59   105.08   134.97   150.63
          (Kelvin)            215.18   232.21   265.51   273.38   303.94
                              340.22   391.48   409.42   414.92   426.12
                              448.49   456.19   462.26   482.50   522.44
                              545.53   585.34   608.39   616.75   629.85
                              689.00   705.71   733.61   762.09   802.48
                              842.09   853.25   882.93   899.40   925.40
                              981.67   998.50  1048.02  1069.32  1099.57
                             1121.01  1224.25  1243.79  1359.40  1376.84
                             1404.65  1407.83  1423.60  1439.30  1451.48
                             1479.21  1486.24  1501.77  1519.54  1534.99
                             1538.76  1545.43  1577.41  1586.89  1596.85
                             1603.68  1624.43  1641.53  1645.68  1665.43
                             1685.36  1693.02  1698.74  1713.15  1749.77
                             1755.76  1775.07  1795.82  1811.24  1829.82
                             1845.41  1853.23  1856.21  1867.60  1874.91
                             1887.64  1894.02  1904.92  1913.04  1935.98
                             1941.63  1951.55  1961.37  1987.77  1991.55
                             1995.25  2019.85  2028.28  2066.78  2072.15
                             2096.89  2110.62  2121.98  2122.57  2136.34
                             2170.13  4685.29  4688.87  4693.72  4698.53
                             4699.77  4703.22  4706.19  4719.95  4720.93
                             4733.54  4740.80  4755.85  4761.40  4769.78
                             4786.18  4801.13  4844.72  4844.94  4846.02
                             4849.10  5596.24  5599.85

 Zero-point correction=                           0.371749 (Hartree/Particle)
 Thermal correction to Energy=                    0.390836
 Thermal correction to Enthalpy=                  0.391781
 Thermal correction to Gibbs Free Energy=         0.324730
 Sum of electronic and zero-point Energies=          -1297.619987
 Sum of electronic and thermal Energies=             -1297.600899
 Sum of electronic and thermal Enthalpies=           -1297.599955
 Sum of electronic and thermal Free Energies=        -1297.667006

                     E (Thermal)             CV                S
                      KCal/Mol        Cal/Mol-Kelvin    Cal/Mol-Kelvin
 Total                  245.254             77.982            141.121
 Electronic               0.000              0.000              0.000
 Translational            0.889              2.981             43.384
 Rotational               0.889              2.981             35.142
 Vibrational            243.476             72.020             62.595
 Vibration     1          0.593              1.985              6.308
 Vibration     2          0.595              1.978              4.912
 Vibration     3          0.599              1.967              4.070
 Vibration     4          0.603              1.954              3.579
 Vibration     5          0.605              1.945              3.365
 Vibration     6          0.618              1.903              2.678
 Vibration     7          0.622              1.890              2.533
 Vibration     8          0.631              1.861              2.282
 Vibration     9          0.633              1.854              2.228
 Vibration    10          0.643              1.824              2.033
 Vibration    11          0.655              1.785              1.829
 Vibration    12          0.675              1.725              1.583
 Vibration    13          0.683              1.702              1.506
 Vibration    14          0.685              1.695              1.483
 Vibration    15          0.690              1.681              1.438
 Vibration    16          0.700              1.651              1.353
 Vibration    17          0.704              1.641              1.325
 Vibration    18          0.707              1.633              1.304
 Vibration    19          0.716              1.605              1.234
 Vibration    20          0.737              1.548              1.109
 Vibration    21          0.749              1.515              1.043
 Vibration    22          0.772              1.455              0.938
 Vibration    23          0.785              1.421              0.882
 Vibration    24          0.790              1.408              0.863
 Vibration    25          0.798              1.388              0.834
 Vibration    26          0.835              1.297              0.713
 Vibration    27          0.846              1.271              0.682
 Vibration    28          0.865              1.228              0.634
 Vibration    29          0.885              1.184              0.588
 Vibration    30          0.913              1.123              0.528
 Vibration    31          0.942              1.063              0.476
 Vibration    32          0.951              1.047              0.462
 Vibration    33          0.973              1.003              0.427

 Normal termination of Gaussian 09 at Wed Mar 23 06:05:59 2016.
