 Gaussian 09, Revision B.01,
 Gaussian 09:  EM64L-G09RevB.01 12-Aug-2010

 -------------------------------------------------
 # freq=raman b3lyp/6-31+g(2d,p) geom=connectivity
 -------------------------------------------------

 -----------------
 423 6395/6395.com
 -----------------
 Symbolic Z-matrix:
 Charge =  0 Multiplicity = 1

                         Standard orientation:
 ---------------------------------------------------------------------
 Center     Atomic      Atomic             Coordinates (Angstroms)
 Number     Number       Type             X           Y           Z
 ---------------------------------------------------------------------
      1          8           0       -5.026402   -0.512725    0.390965
      2          6           0       -3.730915   -0.095395   -0.061142
      3          6           0       -3.247310    1.227326    0.510890
      4          8           0       -4.199095    2.239174    0.150291
      5          1           0       -5.115562    1.844010    0.091581
      6          6           0       -1.924210    1.568667   -0.153657
      7          8           0       -1.354524    2.795492    0.327451
      8          1           0       -0.511940    2.919481   -0.196099
      9          6           0       -3.045650   -2.540450   -0.374878
     10          8           0       -4.074262   -3.291096    0.286208
     11          1           0       -3.925845   -4.265779    0.120102
     12          6           0       -2.698855   -1.178382    0.204611
     13          8           0       -1.485233   -0.746426   -0.426586
     14          6           0       -0.886071    0.472963    0.032299
     15          8           0        0.309775    0.577855   -0.752566
     16          6           0        1.505831    0.291383   -0.012161
     17          6           0        2.013556   -1.095751   -0.366538
     18          8           0        1.015790   -2.123299   -0.279985
     19          1           0        0.108830   -1.744990   -0.461607
     20          6           0        3.316709   -1.507739    0.299942
     21          8           0        3.874976   -2.782443   -0.048551
     22          1           0        4.675211   -2.940048    0.530771
     23          6           0        2.298121    2.667892    0.119950
     24          8           0        1.157962    3.374342   -0.390840
     25          1           0        1.362626    4.352755   -0.373102
     26          6           0        2.659305    1.245904   -0.277055
     27          8           0        3.954664    0.848169    0.195759
     28          6           0        4.371658   -0.492362   -0.103716
     29          8           0        5.468085   -0.696013    0.799470
     30          1           0        6.228587   -1.020339    0.311566
     31          1           0        3.152085    3.269844   -0.110917
     32          1           0        2.196921    2.665383    1.185150
     33          1           0        2.754441    1.270903   -1.342524
     34          1           0        4.669979   -0.603138   -1.125300
     35          1           0        3.187130   -1.467902    1.361319
     36          1           0        2.250944   -1.035672   -1.408141
     37          1           0        1.274848    0.315551    1.032331
     38          1           0       -2.155026   -3.133484   -0.373769
     39          1           0       -3.346615   -2.397054   -1.391617
     40          1           0       -2.540070   -1.269028    1.258874
     41          1           0       -5.525422   -0.865434   -0.349423
     42          1           0       -3.794174    0.026647   -1.122275
     43          1           0       -3.137266    1.167051    1.573508
     44          1           0       -2.103207    1.678139   -1.202884
     45          1           0       -0.633379    0.384524    1.068265
 ---------------------------------------------------------------------

 SCF Done:  E(RB3LYP) =  -1297.98041272     A.U. after   14 cycles

 The electronic state is 1-A.
 Alpha  occ. eigenvalues --  -19.19179 -19.18910 -19.18216 -19.18016 -19.17957
 Alpha  occ. eigenvalues --  -19.16920 -19.16478 -19.16259 -19.15030 -19.13627
 Alpha  occ. eigenvalues --  -19.13358 -10.30663 -10.30644 -10.26398 -10.26084
 Alpha  occ. eigenvalues --  -10.25538 -10.25404 -10.25048 -10.24819 -10.24792
 Alpha  occ. eigenvalues --  -10.24456 -10.24224 -10.24164  -1.10277  -1.09214
 Alpha  occ. eigenvalues --   -1.05666  -1.05335  -1.04169  -1.03666  -1.02870
 Alpha  occ. eigenvalues --   -1.02452  -1.02029  -1.00418  -1.00065  -0.82620
 Alpha  occ. eigenvalues --   -0.80305  -0.79538  -0.78742  -0.72015  -0.70130
 Alpha  occ. eigenvalues --   -0.67373  -0.65196  -0.63279  -0.62692  -0.61696
 Alpha  occ. eigenvalues --   -0.60466  -0.56617  -0.55887  -0.55217  -0.54939
 Alpha  occ. eigenvalues --   -0.54310  -0.53428  -0.53036  -0.51638  -0.51259
 Alpha  occ. eigenvalues --   -0.50934  -0.50108  -0.49664  -0.48885  -0.46677
 Alpha  occ. eigenvalues --   -0.46404  -0.45389  -0.44749  -0.43724  -0.43510
 Alpha  occ. eigenvalues --   -0.42882  -0.42300  -0.41295  -0.40311  -0.38989
 Alpha  occ. eigenvalues --   -0.38732  -0.37969  -0.37499  -0.36255  -0.35924
 Alpha  occ. eigenvalues --   -0.35842  -0.34576  -0.34448  -0.33914  -0.33543
 Alpha  occ. eigenvalues --   -0.33081  -0.31332  -0.30971  -0.30534  -0.29888
 Alpha  occ. eigenvalues --   -0.29283  -0.29049  -0.28025  -0.27721  -0.26515
 Alpha  occ. eigenvalues --   -0.26235
 Alpha virt. eigenvalues --   -0.02160  -0.01989  -0.01683  -0.00236   0.00259
 Alpha virt. eigenvalues --    0.00982   0.01749   0.02236   0.02876   0.03354
 Alpha virt. eigenvalues --    0.03891   0.04155   0.04734   0.05209   0.05488

 Mulliken atomic charges:
              1
     1  O   -0.537486
     2  C   -0.256518
     3  C    0.309983
     4  O   -0.548357
     5  H    0.343545
     6  C   -0.191095
     7  O   -0.549985
     8  H    0.397657
     9  C   -0.251805
    10  O   -0.528220
    11  H    0.339806
    12  C    0.291235
    13  O   -0.281831
    14  C    0.319175
    15  O   -0.203705
    16  C    0.212978
    17  C    0.200914
    18  O   -0.595368
    19  H    0.386831
    20  C    0.031080
    21  O   -0.540627
    22  H    0.341574
    23  C   -0.391712
    24  O   -0.549038
    25  H    0.363810
    26  C    0.007555
    27  O   -0.273899
    28  C    0.232160
    29  O   -0.543912
    30  H    0.336510
    31  H    0.142444
    32  H    0.155039
    33  H    0.116660
    34  H    0.141234
    35  H    0.126930
    36  H    0.104723
    37  H    0.103693
    38  H    0.149550
    39  H    0.137954
    40  H    0.115366
    41  H    0.343549
    42  H    0.121991
    43  H    0.124055
    44  H    0.128285
    45  H    0.117271
 Sum of Mulliken atomic charges =   0.00000

 Dipole moment (field-independent basis, Debye):
    X=              2.5617    Y=             -0.4401    Z=             -2.0297  Tot=              3.2978
 Quadrupole moment (field-independent basis, Debye-Ang):
   XX=           -120.5700   YY=           -135.8985   ZZ=           -139.2334
   XY=             14.9739   XZ=              6.0335   YZ=             -2.3347

  Exact polarizability: 233.436  -1.885 198.313   1.341  -0.044 143.740
 Approx polarizability: 274.725  -1.669 257.840   1.871  -0.602 239.490

 ******    7 imaginary frequencies (negative Signs) ******

                     1                      2                      3
                     A                      A                      A
 Frequencies --  -315.9130              -273.7394              -202.7273
 Red. masses --     1.6854                 1.6620                 1.2164
 Frc consts  --     0.0991                 0.0734                 0.0295
 IR Inten    --     1.9861                25.1171               114.2626
 Raman Activ --     0.0240                 0.1868                 0.8856

                     4                      5                      6
                     A                      A                      A
 Frequencies --  -195.9462               -72.1538               -55.5835
 Red. masses --     1.2044                 6.9999                 6.3155
 Frc consts  --     0.0272                 0.0215                 0.0115
 IR Inten    --    93.7205                 1.8528                 0.0281
 Raman Activ --     0.8773                 0.0670                 0.0331

                     7                      8                      9
                     A                      A                      A
 Frequencies --   -22.7083                24.9030                67.8258
 Red. masses --     6.5487                 6.3264                 7.1562
 Frc consts  --     0.0020                 0.0023                 0.0194
 IR Inten    --     0.6210                 1.5178                 1.3946
 Raman Activ --     0.0138                 0.0440                 0.1026

                    10                     11                     12
                     A                      A                      A
 Frequencies --    82.9543                93.2489               112.5700
 Red. masses --     6.1368                 6.7881                 5.7294
 Frc consts  --     0.0249                 0.0348                 0.0428
 IR Inten    --     1.6308                 2.9651                 3.4527
 Raman Activ --     0.3371                 0.0221                 0.0646

                    13                     14                     15
                     A                      A                      A
 Frequencies --   157.6552               168.5538               183.2365
 Red. masses --     6.3807                 5.8270                 7.1730
 Frc consts  --     0.0934                 0.0975                 0.1419
 IR Inten    --     3.0533                 8.3738                 0.0254
 Raman Activ --     0.7031                 0.2525                 0.5329

                    16                     17                     18
                     A                      A                      A
 Frequencies --   206.7932               227.6031               261.1111
 Red. masses --     6.8234                 5.8763                 4.5247
 Frc consts  --     0.1719                 0.1794                 0.1818
 IR Inten    --     0.4839                 0.5650                22.1298
 Raman Activ --     2.6041                 0.2710                 0.1696

                    19                     20                     21
                     A                      A                      A
 Frequencies --   274.3615               288.6018               298.1883
 Red. masses --     4.6768                 5.0568                 5.5457
 Frc consts  --     0.2074                 0.2482                 0.2905
 IR Inten    --     2.1781                 2.8786                 4.1784
 Raman Activ --     0.0987                 0.4535                 2.5061

                    22                     23                     24
                     A                      A                      A
 Frequencies --   304.8114               316.2656               324.1332
 Red. masses --     4.9161                 5.1570                 6.4001
 Frc consts  --     0.2691                 0.3039                 0.3962
 IR Inten    --     3.8421                 3.7975                 4.7565
 Raman Activ --     0.3987                 3.1639                 2.4252

                    25                     26                     27
                     A                      A                      A
 Frequencies --   345.7817               355.4310               380.1613
 Red. masses --     6.7683                 5.0715                 8.3746
 Frc consts  --     0.4768                 0.3775                 0.7131
 IR Inten    --    12.5938                 2.9608                 4.2467
 Raman Activ --     3.2584                 0.4379                 1.6267

                    28                     29                     30
                     A                      A                      A
 Frequencies --   403.8609               417.0612               427.7997
 Red. masses --     4.5127                 6.3574                 4.9564
 Frc consts  --     0.4337                 0.6515                 0.5344
 IR Inten    --    17.1560                 3.1097                 3.2820
 Raman Activ --     1.3923                 5.5443                 4.5311

                    31                     32                     33
                     A                      A                      A
 Frequencies --   431.8548               476.1094               485.1298
 Red. masses --     4.4334                 4.7658                 3.5620
 Frc consts  --     0.4872                 0.6365                 0.4939
 IR Inten    --     3.9452                 3.3152                15.5094
 Raman Activ --     1.0825                 2.8018                 0.7020

                    34                     35                     36
                     A                      A                      A
 Frequencies --   497.4356               537.1856               571.6716
 Red. masses --     4.9367                 3.0227                 4.1625
 Frc consts  --     0.7197                 0.5139                 0.8015
 IR Inten    --     2.1988                 8.7286                19.7025
 Raman Activ --     4.1414                 2.9241                 1.0572

                    37                     38                     39
                     A                      A                      A
 Frequencies --   586.2893               599.0897               613.4261
 Red. masses --     3.2478                 5.7507                 5.1378
 Frc consts  --     0.6578                 1.2161                 1.1391
 IR Inten    --    24.8211                 9.0531                33.3136
 Raman Activ --     0.1677                 0.8011                 0.6188

                    40                     41                     42
                     A                      A                      A
 Frequencies --   632.7561               669.5861               673.6411
 Red. masses --     4.0311                 1.1779                 3.5274
 Frc consts  --     0.9509                 0.3112                 0.9431
 IR Inten    --    16.9996                89.9785                42.8225
 Raman Activ --     0.5183                 1.5116                 1.0768

                    43                     44                     45
                     A                      A                      A
 Frequencies --   696.1296               726.2165               745.6191
 Red. masses --     1.0946                 1.0654                 1.0763
 Frc consts  --     0.3125                 0.3311                 0.3526
 IR Inten    --    90.3543                82.7115                95.7152
 Raman Activ --     1.8266                 1.4414                 1.3626

                    46                     47                     48
                     A                      A                      A
 Frequencies --   775.5630               833.8429               850.4093
 Red. masses --     1.0670                 1.1910                 1.7786
 Frc consts  --     0.3781                 0.4879                 0.7579
 IR Inten    --    74.9641                75.5348                 2.5429
 Raman Activ --     1.0259                 1.1990                 0.7229

                    49                     50                     51
                     A                      A                      A
 Frequencies --   862.9101               920.1036               942.6521
 Red. masses --     1.5664                 5.2911                 5.6525
 Frc consts  --     0.6872                 2.6392                 2.9593
 IR Inten    --    11.3482               173.5754                29.1038
 Raman Activ --     0.3680                 4.2248                 0.0522

                    52                     53                     54
                     A                      A                      A
 Frequencies --   972.0843               974.2155               984.0037
 Red. masses --     6.0325                 5.6799                 5.4336
 Frc consts  --     3.3586                 3.1761                 3.0998
 IR Inten    --     9.1089               147.2291               318.4397
 Raman Activ --     2.4076                 0.7731                 1.2064

                    55                     56                     57
                     A                      A                      A
 Frequencies --   992.9623              1009.7644              1018.0614
 Red. masses --     5.2393                 6.2961                 5.6275
 Frc consts  --     3.0436                 3.7823                 3.4365
 IR Inten    --   196.0433                18.7791               130.6013
 Raman Activ --     2.3083                 2.5154                 2.3952

                    58                     59                     60
                     A                      A                      A
 Frequencies --  1028.4779              1049.8134              1061.3660
 Red. masses --     6.5632                 5.2909                 3.5584
 Frc consts  --     4.0903                 3.4356                 2.3618
 IR Inten    --   358.8412                71.6722                36.5037
 Raman Activ --     4.5779                 3.0608                 8.9906

                    61                     62                     63
                     A                      A                      A
 Frequencies --  1067.9757              1076.3266              1079.5689
 Red. masses --     5.0045                 3.7056                 3.5372
 Frc consts  --     3.3631                 2.5293                 2.4289
 IR Inten    --    92.7674                21.4439                 9.6495
 Raman Activ --     7.1843                 5.3177                 1.1900

                    64                     65                     66
                     A                      A                      A
 Frequencies --  1093.4050              1100.5900              1110.2832
 Red. masses --     3.3949                 2.4293                 2.9138
 Frc consts  --     2.3914                 1.7337                 2.1163
 IR Inten    --    34.7295                27.3242               158.8395
 Raman Activ --    25.2272                 1.6927                 1.8538

                    67                     68                     69
                     A                      A                      A
 Frequencies --  1127.5805              1128.6733              1131.5917
 Red. masses --     3.2579                 2.6998                 2.7696
 Frc consts  --     2.4406                 2.0263                 2.0895
 IR Inten    --    20.0312                26.0292                30.2984
 Raman Activ --     5.5637                 3.5098                 3.2803

                    70                     71                     72
                     A                      A                      A
 Frequencies --  1142.4535              1149.7317              1161.5916
 Red. masses --     2.4499                 1.9150                 1.9481
 Frc consts  --     1.8839                 1.4914                 1.5487
 IR Inten    --    29.5701                 2.7181                13.3645
 Raman Activ --     1.9610                 7.3093                 4.9979

                    73                     74                     75
                     A                      A                      A
 Frequencies --  1167.4575              1175.5950              1193.5339
 Red. masses --     1.7871                 1.9387                 2.0806
 Frc consts  --     1.4351                 1.5786                 1.7462
 IR Inten    --    13.6800                 0.9235                 1.6492
 Raman Activ --     1.4276                 2.6027                 1.5472

                    76                     77                     78
                     A                      A                      A
 Frequencies --  1209.6724              1218.6089              1228.4752
 Red. masses --     1.3242                 1.5750                 1.2894
 Frc consts  --     1.1417                 1.3781                 1.1465
 IR Inten    --    10.5672                11.2339                 2.3939
 Raman Activ --     2.0523                 3.0516                 3.3699

                    79                     80                     81
                     A                      A                      A
 Frequencies --  1231.6531              1249.9605              1267.3482
 Red. masses --     1.2420                 1.2900                 1.2927
 Frc consts  --     1.1101                 1.1875                 1.2233
 IR Inten    --    16.1872                 3.4407                23.5152
 Raman Activ --     1.0272                 1.1008                 1.9131

                    82                     83                     84
                     A                      A                      A
 Frequencies --  1275.9598              1289.8427              1293.0308
 Red. masses --     1.2151                 1.3290                 1.4064
 Frc consts  --     1.1656                 1.3027                 1.3854
 IR Inten    --    11.6633                 4.4966                33.5891
 Raman Activ --     1.7245                 1.2972                 1.8514

                    85                     86                     87
                     A                      A                      A
 Frequencies --  1297.1184              1303.5204              1308.9220
 Red. masses --     1.2647                 1.2669                 1.3046
 Frc consts  --     1.2537                 1.2683                 1.3169
 IR Inten    --    43.2889                 4.0134                 2.9310
 Raman Activ --     6.0709                 4.1713                 1.7157

                    88                     89                     90
                     A                      A                      A
 Frequencies --  1321.0431              1325.9463              1333.6820
 Red. masses --     1.2333                 1.1923                 1.2321
 Frc consts  --     1.2681                 1.2351                 1.2913
 IR Inten    --    22.6729                 6.8405                40.3313
 Raman Activ --     3.3255                 5.2900                 2.5413

                    91                     92                     93
                     A                      A                      A
 Frequencies --  1339.1740              1340.5479              1359.4580
 Red. masses --     1.1596                 1.2202                 1.3848
 Frc consts  --     1.2252                 1.2920                 1.5079
 IR Inten    --    44.0258                 0.5622                 4.4758
 Raman Activ --     1.6875                13.1186                 2.8284

                    94                     95                     96
                     A                      A                      A
 Frequencies --  1368.7252              1373.7644              1376.3989
 Red. masses --     1.1833                 1.3357                 1.4265
 Frc consts  --     1.3061                 1.4852                 1.5922
 IR Inten    --    26.2408                15.5985                24.4641
 Raman Activ --     4.0631                 1.0650                 6.1146

                    97                     98                     99
                     A                      A                      A
 Frequencies --  1385.5009              1403.8316              1421.3638
 Red. masses --     1.4843                 1.2698                 1.2965
 Frc consts  --     1.6787                 1.4744                 1.5433
 IR Inten    --    10.9938                 2.7533                13.2795
 Raman Activ --     7.2654                 3.5004                 8.3638

                   100                    101                    102
                     A                      A                      A
 Frequencies --  1425.5459              1432.0132              1459.2803
 Red. masses --     1.4137                 1.4070                 1.3385
 Frc consts  --     1.6927                 1.7000                 1.6794
 IR Inten    --    55.3660                17.2917                24.3671
 Raman Activ --     2.5824                 1.2769                 2.7922

                   103                    104                    105
                     A                      A                      A
 Frequencies --  1469.3459              1470.9854              1475.7069
 Red. masses --     1.1135                 1.1051                 1.3101
 Frc consts  --     1.4163                 1.4088                 1.6809
 IR Inten    --    10.9908                12.5737                19.5922
 Raman Activ --     2.5262                 5.2275                 0.3607

                   106                    107                    108
                     A                      A                      A
 Frequencies --  1492.0020              1499.2105              3247.8858
 Red. masses --     1.2986                 1.2868                 1.0787
 Frc consts  --     1.7033                 1.7041                 6.7040
 IR Inten    --    31.1845                67.5062                 9.5133
 Raman Activ --     2.7547                 0.9349                 7.7395

                   109                    110                    111
                     A                      A                      A
 Frequencies --  3254.4402              3255.2932              3258.2769
 Red. masses --     1.0702                 1.0576                 1.0698
 Frc consts  --     6.6783                 6.6032                 6.6917
 IR Inten    --    72.4303                27.6555                55.6940
 Raman Activ --   199.3171                93.7031                22.1945

                   112                    113                    114
                     A                      A                      A
 Frequencies --  3272.6795              3276.2656              3280.3281
 Red. masses --     1.0829                 1.0844                 1.0805
 Frc consts  --     6.8335                 6.8580                 6.8501
 IR Inten    --     5.5395                16.0558                47.7409
 Raman Activ --    10.4379               137.3506               153.8721

                   115                    116                    117
                     A                      A                      A
 Frequencies --  3282.6427              3286.1197              3287.8362
 Red. masses --     1.0835                 1.0806                 1.0798
 Frc consts  --     6.8788                 6.8751                 6.8772
 IR Inten    --    44.2440               136.4552                61.4391
 Raman Activ --    12.5934                85.9938                89.3494

                   118                    119                    120
                     A                      A                      A
 Frequencies --  3291.4299              3301.1200              3302.4109
 Red. masses --     1.0812                 1.0822                 1.0872
 Frc consts  --     6.9011                 6.9483                 6.9858
 IR Inten    --    79.5641               318.0170                60.5254
 Raman Activ --   112.8834                23.9584                61.5801

                   121                    122                    123
                     A                      A                      A
 Frequencies --  3305.6429              3308.1914              3313.2818
 Red. masses --     1.0770                 1.1018                 1.1045
 Frc consts  --     6.9342                 7.1047                 7.1435
 IR Inten    --   549.9159                85.9659                77.2962
 Raman Activ --    80.3601                31.7909                35.1681

                   124                    125                    126
                     A                      A                      A
 Frequencies --  3363.5030              3364.8834              3372.2679
 Red. masses --     1.0657                 1.0663                 1.0682
 Frc consts  --     7.1034                 7.1135                 7.1569
 IR Inten    --    48.3081                40.5627                47.8937
 Raman Activ --   115.9198               104.0671               157.2669

                   127                    128                    129
                     A                      A                      A
 Frequencies --  3377.3671              3888.8309              3890.8755
 Red. masses --     1.0678                 1.0675                 1.0673
 Frc consts  --     7.1764                 9.5120                 9.5200
 IR Inten    --    74.7273                76.1518                67.1762
 Raman Activ --   149.4489                73.5469               127.7798

 - Thermochemistry -
 -------------------
 Temperature   298.150 Kelvin.  Pressure   1.00000 Atm.
 Atom     1 has atomic number  8 and mass  15.99491

 Molecular mass:   342.11621 amu.
 Principal axes and moments of inertia in atomic units:
                           1         2         3
     Eigenvalues --  4494.63222********************
           X            0.99997   0.00760   0.00125
           Y           -0.00760   0.99997   0.00120
           Z           -0.00124  -0.00121   1.00000
 This molecule is an asymmetric top.
 Rotational symmetry number  1.
 Warning -- assumption of classical behavior for rotation
           may cause significant error
 Rotational temperatures (Kelvin)      0.01927     0.00699     0.00527
 Rotational constants (GHZ):           0.40153     0.14574     0.10983
    7 imaginary frequencies ignored.
 Zero-point vibrational energy     974219.9 (Joules/Mol)
                                  232.84415 (Kcal/Mol)
 Warning -- explicit consideration of  32 degrees of freedom as
           vibrations may cause significant error
 Vibrational temperatures:     35.83    97.59   119.35   134.16   161.96
          (Kelvin)            226.83   242.51   263.64   297.53   327.47
                              375.68   394.74   415.23   429.03   438.56
                              455.04   466.35   497.50   511.39   546.97
                              581.07   600.06   615.51   621.34   685.01
                              697.99   715.70   772.89   822.51   843.54
                              861.96   882.58   910.39   963.38   969.22
                             1001.57  1044.86  1072.78  1115.86  1199.71
                             1223.55  1241.53  1323.82  1356.26  1398.61
                             1401.68  1415.76  1428.65  1452.82  1464.76
                             1479.75  1510.45  1527.07  1536.58  1548.59
                             1553.26  1573.16  1583.50  1597.45  1622.33
                             1623.91  1628.11  1643.73  1654.21  1671.27
                             1679.71  1691.42  1717.23  1740.45  1753.30
                             1767.50  1772.07  1798.41  1823.43  1835.82
                             1855.79  1860.38  1866.26  1875.47  1883.24
                             1900.68  1907.74  1918.87  1926.77  1928.75
                             1955.95  1969.29  1976.54  1980.33  1993.42
                             2019.80  2045.02  2051.04  2060.35  2099.58
                             2114.06  2116.42  2123.21  2146.66  2157.03
                             4672.98  4682.41  4683.64  4687.93  4708.65
                             4713.81  4719.65  4722.98  4727.99  4730.46
                             4735.63  4749.57  4751.43  4756.08  4759.74
                             4767.07  4839.32  4841.31  4851.94  4859.27
                             5595.15  5598.10

 Zero-point correction=                           0.371061 (Hartree/Particle)
 Thermal correction to Energy=                    0.389512
 Thermal correction to Enthalpy=                  0.390456
 Thermal correction to Gibbs Free Energy=         0.324984
 Sum of electronic and zero-point Energies=          -1297.609352
 Sum of electronic and thermal Energies=             -1297.590901
 Sum of electronic and thermal Enthalpies=           -1297.589957
 Sum of electronic and thermal Free Energies=        -1297.655429

                     E (Thermal)             CV                S
                      KCal/Mol        Cal/Mol-Kelvin    Cal/Mol-Kelvin
 Total                  244.422             76.126            137.798
 Electronic               0.000              0.000              0.000
 Translational            0.889              2.981             43.384
 Rotational               0.889              2.981             35.168
 Vibrational            242.645             70.164             59.245
 Vibration     1          0.593              1.985              6.199
 Vibration     2          0.598              1.970              4.215
 Vibration     3          0.600              1.961              3.820
 Vibration     4          0.602              1.954              3.591
 Vibration     5          0.607              1.939              3.224
 Vibration     6          0.621              1.894              2.578
 Vibration     7          0.625              1.881              2.452
 Vibration     8          0.631              1.863              2.295
 Vibration     9          0.641              1.830              2.072
 Vibration    10          0.651              1.799              1.898
 Vibration    11          0.669              1.744              1.654
 Vibration    12          0.677              1.721              1.569
 Vibration    13          0.685              1.695              1.482
 Vibration    14          0.691              1.677              1.427
 Vibration    15          0.696              1.665              1.390
 Vibration    16          0.703              1.643              1.329
 Vibration    17          0.709              1.627              1.289
 Vibration    18          0.724              1.584              1.185
 Vibration    19          0.731              1.564              1.142
 Vibration    20          0.750              1.512              1.039
 Vibration    21          0.769              1.462              0.949
 Vibration    22          0.780              1.433              0.902
 Vibration    23          0.789              1.410              0.866
 Vibration    24          0.793              1.401              0.853
 Vibration    25          0.833              1.303              0.721
 Vibration    26          0.841              1.283              0.696
 Vibration    27          0.853              1.256              0.665
 Vibration    28          0.892              1.168              0.571
 Vibration    29          0.928              1.093              0.501
 Vibration    30          0.943              1.061              0.474
 Vibration    31          0.957              1.034              0.451
 Vibration    32          0.973              1.003              0.427

 Normal termination of Gaussian 09 at Sun Mar 27 03:42:02 2016.
