 Gaussian 09, Revision B.01,
 Gaussian 09:  EM64L-G09RevB.01 12-Aug-2010

 -------------------------------------------------
 # freq=raman b3lyp/6-31+g(2d,p) geom=connectivity
 -------------------------------------------------

 -----------------
 500 9114/9114.com
 -----------------
 Symbolic Z-matrix:
 Charge =  0 Multiplicity = 1

                         Standard orientation:
 ---------------------------------------------------------------------
 Center     Atomic      Atomic             Coordinates (Angstroms)
 Number     Number       Type             X           Y           Z
 ---------------------------------------------------------------------
      1          8           0        5.009407   -0.177025   -0.692180
      2          6           0        3.835049   -0.030622    0.118951
      3          6           0        3.308219    1.298208   -0.400348
      4          8           0        4.246974    2.375690   -0.278890
      5          1           0        5.103379    1.969644   -0.597303
      6          6           0        2.020676    1.606870    0.347006
      7          8           0        1.395300    2.744508   -0.264858
      8          1           0        1.961438    3.542557   -0.471467
      9          6           0        3.274016   -2.620204    0.382301
     10          8           0        2.228132   -3.590058    0.221063
     11          1           0        2.751518   -4.439597    0.158106
     12          6           0        2.891837   -1.211197   -0.044015
     13          8           0        1.773614   -0.756569    0.732469
     14          6           0        1.119981    0.394745    0.177873
     15          8           0       -0.187038    0.718804    0.672780
     16          6           0       -1.381834    0.392792   -0.053409
     17          6           0       -1.757510   -1.054883    0.215141
     18          8           0       -0.888374   -1.923947   -0.525329
     19          1           0        0.006133   -1.821092   -0.091600
     20          6           0       -3.051438   -1.532854   -0.423719
     21          8           0       -3.253141   -2.910311   -0.075338
     22          1           0       -2.339819   -3.249338   -0.302708
     23          6           0       -2.229658    2.546872    0.091068
     24          8           0       -3.240096    3.546298    0.293435
     25          1           0       -3.134713    4.393763   -0.227828
     26          6           0       -2.626009    1.119416    0.430659
     27          8           0       -3.804144    0.680199   -0.261164
     28          6           0       -4.116328   -0.643154    0.196969
     29          8           0       -5.303887   -0.851153   -0.580549
     30          1           0       -6.074980   -0.773624   -0.013977
     31          1           0       -4.242362   -0.738935    1.255194
     32          1           0       -3.020675   -1.407008   -1.485847
     33          1           0       -1.731774   -1.281820    1.260482
     34          1           0       -1.239496    0.552617   -1.101787
     35          1           0       -2.741775    1.002657    1.487950
     36          1           0       -1.936326    2.574479   -0.937569
     37          1           0       -1.380745    2.806988    0.688217
     38          1           0        3.558664   -2.596892    1.413481
     39          1           0        4.117971   -2.932359   -0.196662
     40          1           0        2.590785   -1.251598   -1.069995
     41          1           0        5.791167   -0.058309   -0.147793
     42          1           0        4.116119    0.068868    1.146570
     43          1           0        3.071635    1.179835   -1.437130
     44          1           0        2.217691    1.792114    1.382269
     45          1           0        1.020189    0.219621   -0.872971
 ---------------------------------------------------------------------

 SCF Done:  E(RB3LYP) =  -1297.96556135     A.U. after   14 cycles

 The electronic state is 1-A.
 Alpha  occ. eigenvalues --  -19.19084 -19.18953 -19.18079 -19.18056 -19.17924
 Alpha  occ. eigenvalues --  -19.16086 -19.15843 -19.15566 -19.14513 -19.13744
 Alpha  occ. eigenvalues --  -19.13531 -10.31392 -10.28185 -10.27426 -10.27149
 Alpha  occ. eigenvalues --  -10.26131 -10.25801 -10.25650 -10.24757 -10.24056
 Alpha  occ. eigenvalues --  -10.23197 -10.22562 -10.21909  -1.09960  -1.07858
 Alpha  occ. eigenvalues --   -1.07347  -1.05364  -1.04460  -1.04412  -1.03598
 Alpha  occ. eigenvalues --   -1.02066  -1.00484  -0.99773  -0.99252  -0.82495
 Alpha  occ. eigenvalues --   -0.81803  -0.79161  -0.77043  -0.72460  -0.69012
 Alpha  occ. eigenvalues --   -0.66944  -0.64500  -0.63600  -0.62825  -0.61187
 Alpha  occ. eigenvalues --   -0.60119  -0.57296  -0.56094  -0.55362  -0.54358
 Alpha  occ. eigenvalues --   -0.53883  -0.53566  -0.52929  -0.51456  -0.51211
 Alpha  occ. eigenvalues --   -0.50796  -0.49799  -0.47601  -0.47138  -0.47024
 Alpha  occ. eigenvalues --   -0.46078  -0.45482  -0.44040  -0.43696  -0.43590
 Alpha  occ. eigenvalues --   -0.42370  -0.41630  -0.41408  -0.39719  -0.39064
 Alpha  occ. eigenvalues --   -0.38635  -0.38210  -0.37570  -0.36785  -0.36128
 Alpha  occ. eigenvalues --   -0.35838  -0.35620  -0.34514  -0.33128  -0.32525
 Alpha  occ. eigenvalues --   -0.31769  -0.31222  -0.31057  -0.30589  -0.30021
 Alpha  occ. eigenvalues --   -0.29368  -0.28854  -0.28339  -0.27049  -0.26928
 Alpha  occ. eigenvalues --   -0.25485
 Alpha virt. eigenvalues --   -0.03536  -0.02370  -0.00663   0.00030   0.00852
 Alpha virt. eigenvalues --    0.00892   0.01813   0.02336   0.02827   0.03535
 Alpha virt. eigenvalues --    0.03625   0.04200   0.04502   0.05109   0.06140

 Mulliken atomic charges:
              1
     1  O   -0.578847
     2  C   -0.094931
     3  C    0.238596
     4  O   -0.578003
     5  H    0.338215
     6  C   -0.008025
     7  O   -0.578530
     8  H    0.365318
     9  C   -0.484424
    10  O   -0.475204
    11  H    0.337714
    12  C    0.408807
    13  O   -0.305550
    14  C    0.233913
    15  O   -0.298955
    16  C    0.078845
    17  C    0.260207
    18  O   -0.599176
    19  H    0.368168
    20  C    0.001695
    21  O   -0.540878
    22  H    0.354511
    23  C   -0.351852
    24  O   -0.546993
    25  H    0.325553
    26  C    0.081905
    27  O   -0.208715
    28  C    0.204596
    29  O   -0.514610
    30  H    0.318056
    31  H    0.141759
    32  H    0.140241
    33  H    0.142950
    34  H    0.126659
    35  H    0.122772
    36  H    0.129847
    37  H    0.177893
    38  H    0.144464
    39  H    0.154535
    40  H    0.121871
    41  H    0.334454
    42  H    0.128479
    43  H    0.127597
    44  H    0.134232
    45  H    0.120843
 Sum of Mulliken atomic charges =   0.00000

 Dipole moment (field-independent basis, Debye):
    X=              9.0140    Y=             -0.1887    Z=              1.1975  Tot=              9.0952
 Quadrupole moment (field-independent basis, Debye-Ang):
   XX=           -121.9006   YY=           -135.1914   ZZ=           -139.1005
   XY=            -13.2498   XZ=             -4.1415   YZ=             -7.1208

  Exact polarizability: 225.982   0.933 203.466  -0.690  -1.285 143.323
 Approx polarizability: 270.488   0.169 262.855  -0.048  -1.371 240.141

 ******    7 imaginary frequencies (negative Signs) ******

                     1                      2                      3
                     A                      A                      A
 Frequencies --  -297.9364              -245.4083              -241.7872
 Red. masses --     1.0845                 1.7749                 1.7575
 Frc consts  --     0.0567                 0.0630                 0.0605
 IR Inten    --    91.1918                 1.7479                 5.6020
 Raman Activ --     1.1723                 0.0925                 0.1396

                     4                      5                      6
                     A                      A                      A
 Frequencies --  -102.3801               -63.6385               -48.7131
 Red. masses --     4.7867                 5.6269                 6.5267
 Frc consts  --     0.0296                 0.0134                 0.0091
 IR Inten    --     8.8191                 2.8777                 1.1636
 Raman Activ --     0.0792                 0.0816                 0.1063

                     7                      8                      9
                     A                      A                      A
 Frequencies --   -14.8141                44.8667                62.9031
 Red. masses --     7.1349                 3.4081                 6.5253
 Frc consts  --     0.0009                 0.0040                 0.0152
 IR Inten    --     3.9809                27.3516                 1.4091
 Raman Activ --     0.0787                 0.2321                 0.0842

                    10                     11                     12
                     A                      A                      A
 Frequencies --    97.6587                99.3688               107.5029
 Red. masses --     3.4769                 3.5146                 4.7913
 Frc consts  --     0.0195                 0.0204                 0.0326
 IR Inten    --    28.8753                41.2377                 2.5115
 Raman Activ --     0.3166                 0.2036                 1.0335

                    13                     14                     15
                     A                      A                      A
 Frequencies --   135.4038               142.1528               174.7654
 Red. masses --     6.4820                 5.7400                 5.4590
 Frc consts  --     0.0700                 0.0683                 0.0982
 IR Inten    --     0.2532                 0.3010                 6.5864
 Raman Activ --     0.6638                 0.2012                 0.3834

                    16                     17                     18
                     A                      A                      A
 Frequencies --   200.9958               213.6571               256.3248
 Red. masses --     6.1219                 5.9949                 4.5427
 Frc consts  --     0.1457                 0.1612                 0.1759
 IR Inten    --     1.0525                 2.8073                14.4910
 Raman Activ --     2.6107                 0.2853                 0.4523

                    19                     20                     21
                     A                      A                      A
 Frequencies --   274.4786               285.2351               297.8791
 Red. masses --     5.4128                 6.0020                 5.0335
 Frc consts  --     0.2403                 0.2877                 0.2631
 IR Inten    --     0.6092                 0.7297                 3.6970
 Raman Activ --     1.3595                 0.3699                 0.1538

                    22                     23                     24
                     A                      A                      A
 Frequencies --   321.7856               340.1714               349.7367
 Red. masses --     5.0634                 5.8049                 6.2900
 Frc consts  --     0.3089                 0.3958                 0.4533
 IR Inten    --     4.7294                 4.1507                 0.4978
 Raman Activ --     2.8683                 2.7010                 1.0865

                    25                     26                     27
                     A                      A                      A
 Frequencies --   354.4830               372.5123               391.0626
 Red. masses --     4.4347                 5.3731                 4.3133
 Frc consts  --     0.3283                 0.4393                 0.3886
 IR Inten    --    10.6186                 5.6980                 8.3337
 Raman Activ --     2.2002                 0.9271                 0.4939

                    28                     29                     30
                     A                      A                      A
 Frequencies --   417.4560               442.8814               449.8896
 Red. masses --     5.3253                 4.4715                 4.4302
 Frc consts  --     0.5468                 0.5168                 0.5283
 IR Inten    --     0.7838                 5.8148                12.3576
 Raman Activ --     2.2591                 4.6166                 2.1736

                    31                     32                     33
                     A                      A                      A
 Frequencies --   457.4308               477.0374               510.6924
 Red. masses --     6.3840                 4.1247                 4.3664
 Frc consts  --     0.7870                 0.5530                 0.6710
 IR Inten    --     1.2888                 2.6360                 8.7407
 Raman Activ --     1.7519                 2.8454                 0.5693

                    34                     35                     36
                     A                      A                      A
 Frequencies --   535.0688               564.8257               578.1813
 Red. masses --     3.7203                 3.9116                 4.4404
 Frc consts  --     0.6276                 0.7352                 0.8746
 IR Inten    --    19.3972                12.6545                 6.6109
 Raman Activ --     2.2657                 1.2422                 3.4343

                    37                     38                     39
                     A                      A                      A
 Frequencies --   587.3010               596.4542               616.9638
 Red. masses --     3.0713                 4.0090                 2.5399
 Frc consts  --     0.6241                 0.8403                 0.5696
 IR Inten    --    20.1849                22.9039                46.8766
 Raman Activ --     0.1201                 0.4443                 1.0682

                    40                     41                     42
                     A                      A                      A
 Frequencies --   627.2302               640.8010               665.8084
 Red. masses --     1.3305                 3.0433                 2.8847
 Frc consts  --     0.3084                 0.7363                 0.7534
 IR Inten    --    65.8862                47.6074                13.1633
 Raman Activ --     0.8728                 0.1708                 1.4597

                    43                     44                     45
                     A                      A                      A
 Frequencies --   668.4955               712.2792               789.1758
 Red. masses --     1.0806                 1.0901                 1.0734
 Frc consts  --     0.2845                 0.3259                 0.3939
 IR Inten    --    98.7103                92.5284                65.5909
 Raman Activ --     2.0065                 1.4054                 1.2799

                    46                     47                     48
                     A                      A                      A
 Frequencies --   808.5739               834.4266               839.9597
 Red. masses --     1.0952                 2.5808                 2.6672
 Frc consts  --     0.4219                 1.0587                 1.1087
 IR Inten    --   105.5577                10.5479                 8.4259
 Raman Activ --     1.1268                 1.2288                 4.8564

                    49                     50                     51
                     A                      A                      A
 Frequencies --   873.4737               934.6338               959.8380
 Red. masses --     1.1040                 6.8348                 5.7204
 Frc consts  --     0.4963                 3.5177                 3.1051
 IR Inten    --    66.7706               208.1677               272.8858
 Raman Activ --     1.0223                 2.0674                 2.3082

                    52                     53                     54
                     A                      A                      A
 Frequencies --   969.3165               972.9981               987.9056
 Red. masses --     5.0459                 5.4265                 3.8538
 Frc consts  --     2.7933                 3.0269                 2.2160
 IR Inten    --   134.3713               131.3929                58.4838
 Raman Activ --     4.3983                 3.0544                 1.0376

                    55                     56                     57
                     A                      A                      A
 Frequencies --   995.1202              1004.9871              1027.0526
 Red. masses --     5.6483                 5.1220                 6.5164
 Frc consts  --     3.2955                 3.0480                 4.0499
 IR Inten    --   138.7165                21.4844               279.4525
 Raman Activ --     2.8300                 2.4818                 2.7696

                    58                     59                     60
                     A                      A                      A
 Frequencies --  1037.8343              1041.1577              1055.7189
 Red. masses --     3.8281                 3.9381                 3.7216
 Frc consts  --     2.4294                 2.5152                 2.4439
 IR Inten    --    72.8135               248.5816                18.7682
 Raman Activ --     2.2484                 6.1927                17.2976

                    61                     62                     63
                     A                      A                      A
 Frequencies --  1061.9801              1066.0864              1067.7354
 Red. masses --     3.4372                 3.4507                 2.7764
 Frc consts  --     2.2839                 2.3107                 1.8649
 IR Inten    --    30.4203                41.8125                24.0704
 Raman Activ --     2.0250                23.9749                 1.3354

                    64                     65                     66
                     A                      A                      A
 Frequencies --  1075.5467              1081.6846              1086.2080
 Red. masses --     2.5369                 2.3869                 3.3745
 Frc consts  --     1.7291                 1.6455                 2.3457
 IR Inten    --    68.0321                46.0712                45.9877
 Raman Activ --     2.7638                 4.3406                 8.2123

                    67                     68                     69
                     A                      A                      A
 Frequencies --  1090.9376              1116.0551              1118.4509
 Red. masses --     2.8061                 1.5152                 1.7921
 Frc consts  --     1.9677                 1.1120                 1.3208
 IR Inten    --    40.8265                10.8116                13.1466
 Raman Activ --     4.1818                 1.9678                 5.4573

                    70                     71                     72
                     A                      A                      A
 Frequencies --  1126.1878              1132.3264              1136.9957
 Red. masses --     3.2211                 1.9420                 2.6101
 Frc consts  --     2.4070                 1.4670                 1.9880
 IR Inten    --    37.0505                 2.1157                82.8200
 Raman Activ --     4.7892                 3.7381                 1.7738

                    73                     74                     75
                     A                      A                      A
 Frequencies --  1140.7635              1156.6425              1169.4538
 Red. masses --     2.8341                 2.0778                 2.1356
 Frc consts  --     2.1730                 1.6378                 1.7208
 IR Inten    --     4.1233                 4.2076                11.0872
 Raman Activ --     1.6984                 1.4655                 3.0966

                    76                     77                     78
                     A                      A                      A
 Frequencies --  1181.7699              1203.2239              1208.3594
 Red. masses --     1.6026                 1.3360                 1.2801
 Frc consts  --     1.3187                 1.1396                 1.1013
 IR Inten    --     4.0811                 7.9659                23.3845
 Raman Activ --     3.4650                 2.2814                 2.4658

                    79                     80                     81
                     A                      A                      A
 Frequencies --  1214.9343              1220.5681              1251.2486
 Red. masses --     1.2814                 1.3128                 1.2136
 Frc consts  --     1.1144                 1.1523                 1.1194
 IR Inten    --    22.9405                 5.6550                 5.8327
 Raman Activ --     1.3011                 1.8027                 1.7216

                    82                     83                     84
                     A                      A                      A
 Frequencies --  1257.7848              1262.1675              1276.0467
 Red. masses --     1.2054                 1.2913                 1.4067
 Frc consts  --     1.1236                 1.2120                 1.3496
 IR Inten    --    12.0644                 7.2274                24.2071
 Raman Activ --     2.3913                 1.4533                 3.4441

                    85                     86                     87
                     A                      A                      A
 Frequencies --  1285.1884              1298.7992              1306.2734
 Red. masses --     1.2085                 1.2268                 1.2386
 Frc consts  --     1.1761                 1.2193                 1.2453
 IR Inten    --    29.8014                 2.6861                18.5469
 Raman Activ --     7.0038                 7.3249                 7.2965

                    88                     89                     90
                     A                      A                      A
 Frequencies --  1309.6459              1311.8148              1319.4447
 Red. masses --     1.2963                 1.2329                 1.3009
 Frc consts  --     1.3100                 1.2500                 1.3344
 IR Inten    --    14.1773                18.2414                77.4037
 Raman Activ --     3.9856                 4.7346                 2.4114

                    91                     92                     93
                     A                      A                      A
 Frequencies --  1325.1697              1330.5815              1333.4256
 Red. masses --     1.2844                 1.4724                 1.4145
 Frc consts  --     1.3289                 1.5359                 1.4818
 IR Inten    --    11.4979                25.9250                23.2509
 Raman Activ --     1.9310                 1.3910                 4.0754

                    94                     95                     96
                     A                      A                      A
 Frequencies --  1350.7853              1352.1525              1361.2735
 Red. masses --     1.2213                 1.2428                 1.3872
 Frc consts  --     1.3129                 1.3387                 1.5145
 IR Inten    --     4.6930                22.9395                 8.5955
 Raman Activ --     1.9749                 1.3886                12.1502

                    97                     98                     99
                     A                      A                      A
 Frequencies --  1366.9470              1376.1724              1380.8003
 Red. masses --     1.5070                 1.4125                 1.6079
 Frc consts  --     1.6590                 1.5761                 1.8062
 IR Inten    --    29.7158                24.3232                13.2856
 Raman Activ --     5.5907                 3.8667                 2.3392

                   100                    101                    102
                     A                      A                      A
 Frequencies --  1403.3195              1440.5725              1447.4095
 Red. masses --     1.4230                 1.3375                 1.4699
 Frc consts  --     1.6511                 1.6353                 1.8143
 IR Inten    --     7.1977                 0.7643                63.6553
 Raman Activ --     3.6145                 0.6172                 1.1667

                   103                    104                    105
                     A                      A                      A
 Frequencies --  1456.0327              1457.7882              1465.0575
 Red. masses --     1.0772                 1.0867                 1.3331
 Frc consts  --     1.3455                 1.3606                 1.6859
 IR Inten    --     4.6384                 2.4055                25.2570
 Raman Activ --     5.4655                 5.2539                 2.6484

                   106                    107                    108
                     A                      A                      A
 Frequencies --  1489.8305              1514.7512              3260.5849
 Red. masses --     1.2902                 1.3675                 1.0576
 Frc consts  --     1.6872                 1.8487                 6.6246
 IR Inten    --    29.4949                99.8147                36.8635
 Raman Activ --     1.4794                 2.3983               114.6173

                   109                    110                    111
                     A                      A                      A
 Frequencies --  3261.1942              3267.8692              3276.3851
 Red. masses --     1.0584                 1.0840                 1.0825
 Frc consts  --     6.6321                 6.8204                 6.8462
 IR Inten    --    26.7632                 7.1234                 4.1392
 Raman Activ --    59.4029                 4.5640                15.7404

                   112                    113                    114
                     A                      A                      A
 Frequencies --  3280.4487              3281.8175              3292.6719
 Red. masses --     1.0827                 1.0840                 1.0860
 Frc consts  --     6.8649                 6.8790                 6.9373
 IR Inten    --     8.1369                 4.2517                 1.6605
 Raman Activ --   153.4539                56.6897                17.8968

                   115                    116                    117
                     A                      A                      A
 Frequencies --  3292.8497              3300.0160              3301.7065
 Red. masses --     1.0849                 1.0862                 1.0873
 Frc consts  --     6.9310                 6.9694                 6.9838
 IR Inten    --     1.9083                 7.7141                 1.5204
 Raman Activ --    64.1809                40.7983               102.2230

                   118                    119                    120
                     A                      A                      A
 Frequencies --  3304.6422              3312.6461              3317.1086
 Red. masses --     1.0873                 1.0874                 1.1053
 Frc consts  --     6.9959                 7.0309                 7.1658
 IR Inten    --    46.2051                36.3658                39.4027
 Raman Activ --    16.5254                14.8167                48.4686

                   121                    122                    123
                     A                      A                      A
 Frequencies --  3325.3837              3342.0069              3350.4914
 Red. masses --     1.1043                 1.0641                 1.0657
 Frc consts  --     7.1951                 7.0022                 7.0487
 IR Inten    --    37.0229               182.2488                80.9904
 Raman Activ --    33.3409               135.7305               107.9024

                   124                    125                    126
                     A                      A                      A
 Frequencies --  3358.8756              3365.5784              3374.1592
 Red. masses --     1.0687                 1.0636                 1.0676
 Frc consts  --     7.1040                 7.0984                 7.1615
 IR Inten    --    37.9037                49.8812                69.2552
 Raman Activ --   194.2940                94.9463               120.6803

                   127                    128                    129
                     A                      A                      A
 Frequencies --  3377.5419              3881.0255              3887.9101
 Red. masses --     1.0669                 1.0676                 1.0672
 Frc consts  --     7.1711                 9.4742                 9.5042
 IR Inten    --    45.1782                60.1577                47.2321
 Raman Activ --   152.9879                99.7780               156.9489

 - Thermochemistry -
 -------------------
 Temperature   298.150 Kelvin.  Pressure   1.00000 Atm.
 Atom     1 has atomic number  8 and mass  15.99491

 Molecular mass:   342.11621 amu.
 Principal axes and moments of inertia in atomic units:
                           1         2         3
     Eigenvalues --  4737.83315********************
           X            0.99997  -0.00809  -0.00118
           Y            0.00809   0.99996  -0.00376
           Z            0.00121   0.00375   0.99999
 This molecule is an asymmetric top.
 Rotational symmetry number  1.
 Warning -- assumption of classical behavior for rotation
           may cause significant error
 Rotational temperatures (Kelvin)      0.01828     0.00733     0.00540
 Rotational constants (GHZ):           0.38092     0.15269     0.11242
    7 imaginary frequencies ignored.
 Zero-point vibrational energy     972583.2 (Joules/Mol)
                                  232.45297 (Kcal/Mol)
 Warning -- explicit consideration of  32 degrees of freedom as
           vibrations may cause significant error
 Vibrational temperatures:     64.55    90.50   140.51   142.97   154.67
          (Kelvin)            194.82   204.53   251.45   289.19   307.40
                              368.79   394.91   410.39   428.58   462.98
                              489.43   503.19   510.02   535.96   562.65
                              600.63   637.21   647.29   658.14   686.35
                              734.77   769.84   812.66   831.87   844.99
                              858.16   887.67   902.44   921.97   957.95
                              961.81  1024.81  1135.45  1163.36  1200.55
                             1208.51  1256.73  1344.73  1380.99  1394.63
                             1399.93  1421.37  1431.75  1445.95  1477.70
                             1493.21  1497.99  1518.94  1527.95  1533.86
                             1536.23  1547.47  1556.30  1562.81  1569.61
                             1605.75  1609.20  1620.33  1629.16  1635.88
                             1641.30  1664.15  1682.58  1700.30  1731.17
                             1738.56  1748.02  1756.12  1800.27  1809.67
                             1815.98  1835.94  1849.10  1868.68  1879.43
                             1884.29  1887.41  1898.38  1906.62  1914.41
                             1918.50  1943.48  1945.44  1958.57  1966.73
                             1980.00  1986.66  2019.06  2072.66  2082.50
                             2094.90  2097.43  2107.89  2143.53  2179.39
                             4691.25  4692.13  4701.73  4713.98  4719.83
                             4721.80  4737.41  4737.67  4747.98  4750.41
                             4754.64  4766.15  4772.57  4784.48  4808.40
                             4820.60  4832.67  4842.31  4854.66  4859.52
                             5583.92  5593.83

 Zero-point correction=                           0.370437 (Hartree/Particle)
 Thermal correction to Energy=                    0.388755
 Thermal correction to Enthalpy=                  0.389699
 Thermal correction to Gibbs Free Energy=         0.324852
 Sum of electronic and zero-point Energies=          -1297.595124
 Sum of electronic and thermal Energies=             -1297.576807
 Sum of electronic and thermal Enthalpies=           -1297.575863
 Sum of electronic and thermal Free Energies=        -1297.640710

                     E (Thermal)             CV                S
                      KCal/Mol        Cal/Mol-Kelvin    Cal/Mol-Kelvin
 Total                  243.947             76.049            136.482
 Electronic               0.000              0.000              0.000
 Translational            0.889              2.981             43.384
 Rotational               0.889              2.981             35.151
 Vibrational            242.170             70.087             57.946
 Vibration     1          0.595              1.979              5.032
 Vibration     2          0.597              1.972              4.364
 Vibration     3          0.603              1.951              3.501
 Vibration     4          0.604              1.950              3.467
 Vibration     5          0.606              1.943              3.314
 Vibration     6          0.613              1.918              2.868
 Vibration     7          0.616              1.911              2.775
 Vibration     8          0.627              1.873              2.384
 Vibration     9          0.638              1.838              2.124
 Vibration    10          0.644              1.820              2.012
 Vibration    11          0.666              1.752              1.687
 Vibration    12          0.677              1.720              1.568
 Vibration    13          0.683              1.701              1.502
 Vibration    14          0.691              1.678              1.429
 Vibration    15          0.707              1.632              1.301
 Vibration    16          0.720              1.595              1.211
 Vibration    17          0.727              1.576              1.167
 Vibration    18          0.730              1.566              1.146
 Vibration    19          0.744              1.529              1.069
 Vibration    20          0.759              1.489              0.996
 Vibration    21          0.780              1.432              0.901
 Vibration    22          0.803              1.377              0.818
 Vibration    23          0.809              1.361              0.796
 Vibration    24          0.816              1.344              0.774
 Vibration    25          0.834              1.301              0.718
 Vibration    26          0.866              1.226              0.632
 Vibration    27          0.890              1.172              0.576
 Vibration    28          0.921              1.107              0.514
 Vibration    29          0.935              1.078              0.489
 Vibration    30          0.944              1.059              0.472
 Vibration    31          0.954              1.039              0.456
 Vibration    32          0.977              0.996              0.421

 Normal termination of Gaussian 09 at Sat Apr  2 17:48:27 2016.
