 Gaussian 09, Revision B.01,
 Gaussian 09:  EM64L-G09RevB.01 12-Aug-2010

 -------------------------------------------------
 # freq=raman b3lyp/6-31+g(2d,p) geom=connectivity
 -------------------------------------------------

 -----------------
 280 7782/7782.com
 -----------------
 Symbolic Z-matrix:
 Charge =  0 Multiplicity = 1

                         Standard orientation:
 ---------------------------------------------------------------------
 Center     Atomic      Atomic             Coordinates (Angstroms)
 Number     Number       Type             X           Y           Z
 ---------------------------------------------------------------------
      1          8           0        4.969723   -0.330759   -0.476684
      2          6           0        3.720935   -0.116178    0.196714
      3          6           0        3.271969    1.286601   -0.180295
      4          8           0        3.958682    2.268152    0.610909
      5          1           0        4.946268    2.112819    0.617719
      6          6           0        1.810246    1.529520    0.155124
      7          8           0        1.519170    2.867827   -0.272657
      8          1           0        0.590720    3.176965   -0.069331
      9          6           0        3.053847   -2.608841    0.203536
     10          8           0        4.023920   -3.447657   -0.441977
     11          1           0        3.976341   -4.374164   -0.069357
     12          6           0        2.770728   -1.199077   -0.289693
     13          8           0        1.468837   -0.863906    0.213229
     14          6           0        0.904713    0.374532   -0.241990
     15          8           0       -0.276421    0.548764    0.552725
     16          6           0       -1.514249    0.263135   -0.115264
     17          6           0       -1.980609   -1.088083    0.400052
     18          8           0       -1.019643   -2.049767   -0.061031
     19          1           0       -0.100310   -1.679411    0.065347
     20          6           0       -3.345804   -1.504701   -0.122595
     21          8           0       -3.768620   -2.734060    0.486920
     22          1           0       -4.554913   -3.089716   -0.018139
     23          6           0       -2.333018    2.659785   -0.366105
     24          8           0       -1.136064    3.338114    0.040078
     25          1           0       -1.344442    4.307566    0.166360
     26          6           0       -2.606528    1.273745    0.194637
     27          8           0       -3.893469    0.868678   -0.292501
     28          6           0       -4.361935   -0.410300    0.160221
     29          8           0       -5.587820   -0.771055   -0.493090
     30          1           0       -6.252136   -0.982110    0.167016
     31          1           0       -3.161952    3.283264   -0.103344
     32          1           0       -2.310875    2.577507   -1.432707
     33          1           0       -2.673806    1.360847    1.258961
     34          1           0       -1.354101    0.213208   -1.172033
     35          1           0       -1.993633   -1.078886    1.469933
     36          1           0       -3.280334   -1.649310   -1.180755
     37          1           0       -4.533446   -0.361762    1.215270
     38          1           0        5.662737   -0.473569    0.172113
     39          1           0        2.123758   -3.137409    0.182336
     40          1           0        3.349256   -2.525262    1.228547
     41          1           0        2.748755   -1.196167   -1.359463
     42          1           0        3.855266   -0.189794    1.255693
     43          1           0        3.446313    1.463981   -1.220988
     44          1           0        1.762349    1.560819    1.223593
     45          1           0        0.690047    0.365100   -1.290192
 ---------------------------------------------------------------------

 SCF Done:  E(RB3LYP) =  -1297.99589072     A.U. after   13 cycles

 The electronic state is 1-A.
 Alpha  occ. eigenvalues --  -19.18915 -19.18561 -19.18010 -19.17963 -19.17947
 Alpha  occ. eigenvalues --  -19.16441 -19.16031 -19.15894 -19.14937 -19.12950
 Alpha  occ. eigenvalues --  -19.12842 -10.30560 -10.30294 -10.26095 -10.25790
 Alpha  occ. eigenvalues --  -10.25397 -10.25201 -10.24797 -10.24175 -10.24157
 Alpha  occ. eigenvalues --  -10.23637 -10.23624 -10.23244  -1.10087  -1.08583
 Alpha  occ. eigenvalues --   -1.05616  -1.05099  -1.04065  -1.03562  -1.02448
 Alpha  occ. eigenvalues --   -1.02304  -1.01888  -0.99942  -0.99053  -0.82147
 Alpha  occ. eigenvalues --   -0.79740  -0.79086  -0.78040  -0.71908  -0.69774
 Alpha  occ. eigenvalues --   -0.67176  -0.65072  -0.63192  -0.62896  -0.60996
 Alpha  occ. eigenvalues --   -0.59759  -0.56228  -0.55825  -0.55425  -0.54445
 Alpha  occ. eigenvalues --   -0.53801  -0.53281  -0.52854  -0.51966  -0.50794
 Alpha  occ. eigenvalues --   -0.50423  -0.50258  -0.49411  -0.48240  -0.46619
 Alpha  occ. eigenvalues --   -0.45993  -0.44784  -0.44020  -0.43704  -0.43025
 Alpha  occ. eigenvalues --   -0.42603  -0.41456  -0.40319  -0.39987  -0.38769
 Alpha  occ. eigenvalues --   -0.38583  -0.37618  -0.37560  -0.36145  -0.35620
 Alpha  occ. eigenvalues --   -0.35139  -0.34602  -0.34253  -0.33653  -0.33220
 Alpha  occ. eigenvalues --   -0.32821  -0.31411  -0.30517  -0.30201  -0.29716
 Alpha  occ. eigenvalues --   -0.29249  -0.28495  -0.28104  -0.27365  -0.26167
 Alpha  occ. eigenvalues --   -0.25691
 Alpha virt. eigenvalues --   -0.02192  -0.01860  -0.01520  -0.00368   0.00406
 Alpha virt. eigenvalues --    0.01182   0.02009   0.02501   0.02856   0.03364
 Alpha virt. eigenvalues --    0.03748   0.04510   0.04791   0.05472   0.05701

 Mulliken atomic charges:
              1
     1  O   -0.518298
     2  C   -0.136402
     3  C    0.338731
     4  O   -0.548800
     5  H    0.327307
     6  C   -0.180822
     7  O   -0.596983
     8  H    0.404030
     9  C   -0.183623
    10  O   -0.529778
    11  H    0.334904
    12  C    0.160204
    13  O   -0.246011
    14  C    0.191469
    15  O   -0.174584
    16  C    0.100950
    17  C    0.263281
    18  O   -0.595134
    19  H    0.400693
    20  C    0.041268
    21  O   -0.547824
    22  H    0.337030
    23  C   -0.312148
    24  O   -0.557767
    25  H    0.362655
    26  C    0.001016
    27  O   -0.278399
    28  C    0.202261
    29  O   -0.559770
    30  H    0.339962
    31  H    0.145104
    32  H    0.158345
    33  H    0.117557
    34  H    0.113001
    35  H    0.125998
    36  H    0.132277
    37  H    0.123035
    38  H    0.327555
    39  H    0.151211
    40  H    0.130085
    41  H    0.120359
    42  H    0.125346
    43  H    0.132163
    44  H    0.132237
    45  H    0.126306
 Sum of Mulliken atomic charges =   0.00000

 Dipole moment (field-independent basis, Debye):
    X=             -1.8552    Y=              0.4567    Z=              2.2614  Tot=              2.9604
 Quadrupole moment (field-independent basis, Debye-Ang):
   XX=           -117.6110   YY=           -132.9227   ZZ=           -139.5758
   XY=            -12.8497   XZ=              3.6343   YZ=             -1.9504

  Exact polarizability: 232.603   2.184 199.260   0.455  -0.072 144.189
 Approx polarizability: 271.901   2.111 258.122   0.022   1.407 239.620

 ******    7 imaginary frequencies (negative Signs) ******

                     1                      2                      3
                     A                      A                      A
 Frequencies --  -305.9635              -256.2716              -232.2411
 Red. masses --     1.7369                 1.7705                 1.1977
 Frc consts  --     0.0958                 0.0685                 0.0381
 IR Inten    --     9.5760                 1.0193                40.7948
 Raman Activ --     0.1127                 0.0378                 1.1353

                     4                      5                      6
                     A                      A                      A
 Frequencies --  -231.3734               -73.5266               -61.3792
 Red. masses --     1.1948                 6.2122                 6.6657
 Frc consts  --     0.0377                 0.0198                 0.0148
 IR Inten    --   179.0989                 1.3321                 0.3960
 Raman Activ --     0.8842                 0.0203                 0.0215

                     7                      8                      9
                     A                      A                      A
 Frequencies --   -53.3802                20.8367                59.6963
 Red. masses --     6.4861                 6.2919                 6.5966
 Frc consts  --     0.0109                 0.0016                 0.0139
 IR Inten    --     0.1374                 0.5417                 0.2046
 Raman Activ --     0.0101                 0.0141                 0.0302

                    10                     11                     12
                     A                      A                      A
 Frequencies --    77.2220                84.3809               125.5484
 Red. masses --     6.8603                 6.9828                 5.4579
 Frc consts  --     0.0241                 0.0293                 0.0507
 IR Inten    --     1.7435                 1.6823                 1.9613
 Raman Activ --     0.3291                 0.0859                 0.0775

                    13                     14                     15
                     A                      A                      A
 Frequencies --   158.0195               171.9827               180.5291
 Red. masses --     6.2794                 5.9791                 6.9304
 Frc consts  --     0.0924                 0.1042                 0.1331
 IR Inten    --     3.4719                 1.6328                 5.1780
 Raman Activ --     0.3403                 0.3191                 0.5070

                    16                     17                     18
                     A                      A                      A
 Frequencies --   207.3707               234.1317               252.8545
 Red. masses --     7.3193                 5.8257                 4.6601
 Frc consts  --     0.1854                 0.1882                 0.1755
 IR Inten    --     0.1616                 0.3816                22.3397
 Raman Activ --     2.6656                 0.1718                 0.0781

                    19                     20                     21
                     A                      A                      A
 Frequencies --   275.4130               291.4505               303.6077
 Red. masses --     4.4766                 5.2484                 5.3564
 Frc consts  --     0.2001                 0.2627                 0.2909
 IR Inten    --     0.3984                 2.4695                 4.3577
 Raman Activ --     0.1426                 0.6907                 0.4942

                    22                     23                     24
                     A                      A                      A
 Frequencies --   312.0504               316.4279               321.0746
 Red. masses --     5.8462                 4.8322                 5.8153
 Frc consts  --     0.3354                 0.2851                 0.3532
 IR Inten    --     4.4905                 1.4328                 4.0234
 Raman Activ --     1.4172                 3.3136                 3.7733

                    25                     26                     27
                     A                      A                      A
 Frequencies --   349.2861               366.3063               382.6484
 Red. masses --     7.0955                 5.1328                 6.3478
 Frc consts  --     0.5100                 0.4058                 0.5476
 IR Inten    --     5.3814                 4.3334                 1.5031
 Raman Activ --     3.3353                 0.2194                 0.1149

                    28                     29                     30
                     A                      A                      A
 Frequencies --   409.7600               424.3877               437.2416
 Red. masses --     4.2267                 6.2991                 4.7797
 Frc consts  --     0.4181                 0.6684                 0.5384
 IR Inten    --    12.1952                 6.2241                 3.2303
 Raman Activ --     4.7604                 4.0994                 1.2628

                    31                     32                     33
                     A                      A                      A
 Frequencies --   448.3092               478.8363               492.6672
 Red. masses --     5.8104                 4.5079                 3.4805
 Frc consts  --     0.6880                 0.6090                 0.4977
 IR Inten    --     2.6115                 3.1561                13.9483
 Raman Activ --     2.3335                 3.2138                 0.2702

                    34                     35                     36
                     A                      A                      A
 Frequencies --   516.7531               538.8229               568.9881
 Red. masses --     4.3218                 3.0818                 5.1004
 Frc consts  --     0.6800                 0.5272                 0.9729
 IR Inten    --     4.4589                13.4878                 2.2142
 Raman Activ --     2.6287                 2.4114                 1.3675

                    37                     38                     39
                     A                      A                      A
 Frequencies --   584.1037               592.4106               605.3290
 Red. masses --     6.2992                 3.6644                 3.7486
 Frc consts  --     1.2662                 0.7577                 0.8093
 IR Inten    --     3.6100                24.1737                38.4001
 Raman Activ --     1.2045                 0.6054                 1.0708

                    40                     41                     42
                     A                      A                      A
 Frequencies --   642.2788               674.0528               676.3925
 Red. masses --     3.6549                 1.1323                 1.0573
 Frc consts  --     0.8883                 0.3031                 0.2850
 IR Inten    --    23.6093                64.1884               129.6512
 Raman Activ --     0.4351                 1.4368                 1.5068

                    43                     44                     45
                     A                      A                      A
 Frequencies --   684.2173               719.3938               734.7186
 Red. masses --     4.0238                 1.0603                 1.0845
 Frc consts  --     1.1099                 0.3233                 0.3449
 IR Inten    --     6.9660                97.0471                85.9824
 Raman Activ --     0.9048                 2.2520                 1.5993

                    46                     47                     48
                     A                      A                      A
 Frequencies --   772.4713               844.7688               847.6585
 Red. masses --     1.0592                 1.1868                 1.7776
 Frc consts  --     0.3724                 0.4990                 0.7525
 IR Inten    --   103.8599                45.2858                 6.3542
 Raman Activ --     1.3627                 0.7967                 0.8244

                    49                     50                     51
                     A                      A                      A
 Frequencies --   864.8422               923.0053               953.0697
 Red. masses --     1.5096                 6.1166                 5.0743
 Frc consts  --     0.6652                 3.0702                 2.7157
 IR Inten    --    10.5996               104.5236                84.5920
 Raman Activ --     0.5509                 2.1101                 0.7631

                    52                     53                     54
                     A                      A                      A
 Frequencies --   975.4078               983.6620              1000.6216
 Red. masses --     6.4880                 6.6167                 5.0825
 Frc consts  --     3.6369                 3.7721                 2.9982
 IR Inten    --    17.8755               106.5067               265.7719
 Raman Activ --     4.1453                 0.8222                 2.4297

                    55                     56                     57
                     A                      A                      A
 Frequencies --  1004.9379              1010.2654              1026.8875
 Red. masses --     6.9315                 6.5305                 6.7440
 Frc consts  --     4.1244                 3.9271                 4.1900
 IR Inten    --   326.1974                 3.5662               198.9574
 Raman Activ --     4.3060                 2.4044                 3.4759

                    58                     59                     60
                     A                      A                      A
 Frequencies --  1030.4718              1050.7980              1061.7155
 Red. masses --     5.6260                 5.3874                 5.5357
 Frc consts  --     3.5198                 3.5048                 3.6765
 IR Inten    --   243.4337               161.0447                50.1215
 Raman Activ --     0.8482                 8.6589                 2.3124

                    61                     62                     63
                     A                      A                      A
 Frequencies --  1066.4155              1069.2139              1080.7996
 Red. masses --     4.7712                 4.6504                 3.6856
 Frc consts  --     3.1969                 3.1323                 2.5366
 IR Inten    --   147.9512                40.2775                23.9308
 Raman Activ --     4.1953                 1.9933                27.0530

                    64                     65                     66
                     A                      A                      A
 Frequencies --  1085.4105              1103.7030              1106.8322
 Red. masses --     3.1840                 2.5440                 3.0406
 Frc consts  --     2.2101                 1.8259                 2.1947
 IR Inten    --     2.2843                13.0918                11.0716
 Raman Activ --    11.6046                 3.0745                 2.4093

                    67                     68                     69
                     A                      A                      A
 Frequencies --  1108.8425              1114.0004              1122.1970
 Red. masses --     2.6214                 2.1640                 3.1901
 Frc consts  --     1.8990                 1.5823                 2.3669
 IR Inten    --    19.7294                55.2741                16.3813
 Raman Activ --     2.5964                 3.4224                 7.4301

                    70                     71                     72
                     A                      A                      A
 Frequencies --  1132.4954              1139.0345              1148.7917
 Red. masses --     1.7831                 1.5857                 2.3315
 Frc consts  --     1.3474                 1.2121                 1.8129
 IR Inten    --     8.1489                 2.7832                 4.6572
 Raman Activ --     1.3801                 4.1220                 4.3774

                    73                     74                     75
                     A                      A                      A
 Frequencies --  1153.7706              1171.6737              1184.0368
 Red. masses --     1.5695                 1.6641                 1.7444
 Frc consts  --     1.2310                 1.3460                 1.4409
 IR Inten    --     7.9702                 5.6599                 7.9897
 Raman Activ --     1.7507                 1.9279                 1.7744

                    76                     77                     78
                     A                      A                      A
 Frequencies --  1194.7212              1196.7567              1223.6575
 Red. masses --     1.2769                 1.3636                 1.3192
 Frc consts  --     1.0739                 1.1506                 1.1638
 IR Inten    --    12.5745                 6.3896                17.9283
 Raman Activ --     1.2892                 2.3312                 0.4398

                    79                     80                     81
                     A                      A                      A
 Frequencies --  1235.8927              1242.0225              1259.7147
 Red. masses --     1.1833                 1.2510                 1.2319
 Frc consts  --     1.0649                 1.1370                 1.1517
 IR Inten    --     5.9091                17.6068                 3.8812
 Raman Activ --     1.6157                 0.3107                 0.5482

                    82                     83                     84
                     A                      A                      A
 Frequencies --  1262.1977              1277.1634              1287.5995
 Red. masses --     1.2871                 1.3302                 1.2046
 Frc consts  --     1.2081                 1.2784                 1.1767
 IR Inten    --    21.3537                 3.2290                16.7102
 Raman Activ --     1.8618                 3.5296                 5.6482

                    85                     86                     87
                     A                      A                      A
 Frequencies --  1292.1888              1294.5880              1299.3077
 Red. masses --     1.3044                 1.2628                 1.2830
 Frc consts  --     1.2833                 1.2469                 1.2762
 IR Inten    --    26.2327                25.8367                12.3119
 Raman Activ --     5.1847                 0.5039                 2.3120

                    88                     89                     90
                     A                      A                      A
 Frequencies --  1303.1015              1313.3746              1319.1977
 Red. masses --     1.4016                 1.3868                 1.3246
 Frc consts  --     1.4022                 1.4095                 1.3582
 IR Inten    --    26.5399                23.1782                27.5265
 Raman Activ --     4.1104                 8.1224                 1.7386

                    91                     92                     93
                     A                      A                      A
 Frequencies --  1330.8036              1333.9088              1340.9853
 Red. masses --     1.3132                 1.1332                 1.2644
 Frc consts  --     1.3702                 1.1880                 1.3396
 IR Inten    --    20.2985                60.5661                 3.0112
 Raman Activ --     3.0348                 5.1860                 4.0699

                    94                     95                     96
                     A                      A                      A
 Frequencies --  1356.7995              1361.1405              1365.3895
 Red. masses --     1.5006                 1.2994                 1.3739
 Frc consts  --     1.6276                 1.4184                 1.5091
 IR Inten    --     1.6730                18.5934                24.8697
 Raman Activ --     6.6766                 7.3155                 4.0632

                    97                     98                     99
                     A                      A                      A
 Frequencies --  1381.3831              1382.7430              1396.9683
 Red. masses --     1.3720                 1.6013                 1.5036
 Frc consts  --     1.5426                 1.8038                 1.7288
 IR Inten    --    12.7745                 6.4974                 2.1811
 Raman Activ --     4.4560                 4.7700                 5.7668

                   100                    101                    102
                     A                      A                      A
 Frequencies --  1407.3498              1431.9416              1438.2522
 Red. masses --     1.4497                 1.3938                 1.5257
 Frc consts  --     1.6918                 1.6839                 1.8594
 IR Inten    --    26.0566                27.9380                21.8720
 Raman Activ --     1.6671                 2.0188                 1.6123

                   103                    104                    105
                     A                      A                      A
 Frequencies --  1461.0849              1471.9547              1473.0983
 Red. masses --     1.2903                 1.0766                 1.1438
 Frc consts  --     1.6229                 1.3744                 1.4624
 IR Inten    --    13.0346                 4.3221                 9.2843
 Raman Activ --     3.1544                 5.1140                 2.0587

                   106                    107                    108
                     A                      A                      A
 Frequencies --  1497.5073              1505.5526              3254.3967
 Red. masses --     1.2606                 1.2664                 1.0587
 Frc consts  --     1.6656                 1.6913                 6.6067
 IR Inten    --    58.4288                48.5117                25.6618
 Raman Activ --     1.3825                 3.0059                85.7844

                   109                    110                    111
                     A                      A                      A
 Frequencies --  3260.9198              3268.9797              3274.7177
 Red. masses --     1.0590                 1.0815                 1.0818
 Frc consts  --     6.6350                 6.8093                 6.8353
 IR Inten    --    59.8422                23.0734                48.8098
 Raman Activ --    74.0730                22.3850                68.2055

                   112                    113                    114
                     A                      A                      A
 Frequencies --  3275.5476              3278.1694              3282.7257
 Red. masses --     1.0828                 1.0805                 1.0833
 Frc consts  --     6.8448                 6.8410                 6.8778
 IR Inten    --    23.2633               140.6895                23.4647
 Raman Activ --    32.8506               234.1001               206.3420

                   115                    116                    117
                     A                      A                      A
 Frequencies --  3287.5209              3289.0352              3291.7587
 Red. masses --     1.0858                 1.0815                 1.0807
 Frc consts  --     6.9143                 6.8933                 6.8996
 IR Inten    --     4.4546                86.1507                62.0128
 Raman Activ --    18.7086                65.3916                66.6147

                   118                    119                    120
                     A                      A                      A
 Frequencies --  3296.1628              3301.8496              3304.3619
 Red. masses --     1.0842                 1.0882                 1.0878
 Frc consts  --     6.9400                 6.9902                 6.9980
 IR Inten    --    60.4514                25.4685                69.5618
 Raman Activ --    92.6838                27.2230                66.8010

                   121                    122                    123
                     A                      A                      A
 Frequencies --  3308.8384              3309.5825              3318.7095
 Red. masses --     1.0780                 1.0898                 1.1052
 Frc consts  --     6.9539                 7.0332                 7.1718
 IR Inten    --   625.5907               435.0663                78.2542
 Raman Activ --    97.6444                26.2073                27.0297

                   124                    125                    126
                     A                      A                      A
 Frequencies --  3367.6297              3372.0502              3372.1693
 Red. masses --     1.0662                 1.0663                 1.0673
 Frc consts  --     7.1242                 7.1433                 7.1509
 IR Inten    --    16.8632                30.5145                65.0311
 Raman Activ --   155.8211               108.3323               195.4025

                   127                    128                    129
                     A                      A                      A
 Frequencies --  3377.5937              3885.5399              3892.6293
 Red. masses --     1.0683                 1.0676                 1.0675
 Frc consts  --     7.1805                 9.4965                 9.5299
 IR Inten    --    56.2690                57.2024                86.4132
 Raman Activ --   138.1811                97.5137               105.5323

 - Thermochemistry -
 -------------------
 Temperature   298.150 Kelvin.  Pressure   1.00000 Atm.
 Atom     1 has atomic number  8 and mass  15.99491

 Molecular mass:   342.11621 amu.
 Principal axes and moments of inertia in atomic units:
                           1         2         3
     Eigenvalues --  4555.22624********************
           X            0.99997  -0.00706   0.00076
           Y            0.00706   0.99997  -0.00297
           Z           -0.00074   0.00298   1.00000
 This molecule is an asymmetric top.
 Rotational symmetry number  1.
 Warning -- assumption of classical behavior for rotation
           may cause significant error
 Rotational temperatures (Kelvin)      0.01901     0.00709     0.00529
 Rotational constants (GHZ):           0.39619     0.14768     0.11025
    7 imaginary frequencies ignored.
 Zero-point vibrational energy     972961.9 (Joules/Mol)
                                  232.54349 (Kcal/Mol)
 Warning -- explicit consideration of  32 degrees of freedom as
           vibrations may cause significant error
 Vibrational temperatures:     29.98    85.89   111.11   121.41   180.64
          (Kelvin)            227.35   247.44   259.74   298.36   336.86
                              363.80   396.26   419.33   436.82   448.97
                              455.27   461.95   502.54   527.03   550.55
                              589.55   610.60   629.09   645.02   688.94
                              708.84   743.49   775.25   818.65   840.39
                              852.35   870.93   924.09   969.81   973.18
                              984.43  1035.05  1057.09  1111.41  1215.43
                             1219.59  1244.31  1328.00  1371.25  1403.39
                             1415.27  1439.67  1445.88  1453.54  1477.46
                             1482.62  1511.86  1527.57  1534.33  1538.36
                             1555.03  1561.66  1587.98  1592.48  1595.38
                             1602.80  1614.59  1629.41  1638.81  1652.85
                             1660.02  1685.77  1703.56  1718.94  1721.86
                             1760.57  1778.17  1786.99  1812.45  1816.02
                             1837.55  1852.57  1859.17  1862.62  1869.41
                             1874.87  1889.65  1898.03  1914.73  1919.19
                             1929.38  1952.13  1958.38  1964.49  1987.50
                             1989.46  2009.92  2024.86  2060.24  2069.32
                             2102.17  2117.81  2119.46  2154.58  2166.15
                             4682.35  4691.73  4703.33  4711.58  4712.78
                             4716.55  4723.10  4730.00  4732.18  4736.10
                             4742.44  4750.62  4754.23  4760.67  4761.75
                             4774.88  4845.26  4851.62  4851.79  4859.60
                             5590.42  5600.62

 Zero-point correction=                           0.370582 (Hartree/Particle)
 Thermal correction to Energy=                    0.388995
 Thermal correction to Enthalpy=                  0.389939
 Thermal correction to Gibbs Free Energy=         0.324263
 Sum of electronic and zero-point Energies=          -1297.625309
 Sum of electronic and thermal Energies=             -1297.606896
 Sum of electronic and thermal Enthalpies=           -1297.605952
 Sum of electronic and thermal Free Energies=        -1297.671628

                     E (Thermal)             CV                S
                      KCal/Mol        Cal/Mol-Kelvin    Cal/Mol-Kelvin
 Total                  244.098             76.126            138.226
 Electronic               0.000              0.000              0.000
 Translational            0.889              2.981             43.384
 Rotational               0.889              2.981             35.165
 Vibrational            242.320             70.165             59.677
 Vibration     1          0.593              1.986              6.553
 Vibration     2          0.597              1.974              4.467
 Vibration     3          0.599              1.964              3.960
 Vibration     4          0.601              1.960              3.786
 Vibration     5          0.610              1.928              3.013
 Vibration     6          0.621              1.894              2.573
 Vibration     7          0.626              1.877              2.414
 Vibration     8          0.629              1.866              2.323
 Vibration     9          0.641              1.829              2.067
 Vibration    10          0.654              1.789              1.847
 Vibration    11          0.664              1.758              1.711
 Vibration    12          0.677              1.719              1.562
 Vibration    13          0.687              1.690              1.466
 Vibration    14          0.695              1.667              1.397
 Vibration    15          0.700              1.651              1.351
 Vibration    16          0.703              1.642              1.329
 Vibration    17          0.707              1.633              1.305
 Vibration    18          0.727              1.577              1.169
 Vibration    19          0.739              1.542              1.095
 Vibration    20          0.752              1.507              1.029
 Vibration    21          0.774              1.449              0.927
 Vibration    22          0.786              1.417              0.877
 Vibration    23          0.798              1.389              0.835
 Vibration    24          0.807              1.365              0.801
 Vibration    25          0.835              1.297              0.713
 Vibration    26          0.848              1.266              0.677
 Vibration    27          0.872              1.213              0.618
 Vibration    28          0.894              1.164              0.568
 Vibration    29          0.925              1.098              0.506
 Vibration    30          0.941              1.066              0.478
 Vibration    31          0.950              1.048              0.463
 Vibration    32          0.964              1.021              0.441

 Normal termination of Gaussian 09 at Mon Mar 21 23:39:35 2016.
