 Gaussian 09, Revision B.01,
 Gaussian 09:  EM64L-G09RevB.01 12-Aug-2010

 --------------------------------------------------
 # freq=raman b3lyp/6-31+g(2df,p) geom=connectivity
 --------------------------------------------------

 ------------
 310 8000.com
 ------------
 Symbolic Z-matrix:
 Charge =  0 Multiplicity = 1

                         Standard orientation:
 ---------------------------------------------------------------------
 Center     Atomic      Atomic             Coordinates (Angstroms)
 Number     Number       Type             X           Y           Z
 ---------------------------------------------------------------------
      1          8           0        4.946208   -0.560427   -0.213719
      2          6           0        3.648207   -0.219522    0.293321
      3          6           0        3.289846    1.205398   -0.095944
      4          8           0        4.343488    2.145181    0.164357
      5          1           0        5.195006    1.640348    0.306869
      6          6           0        1.883037    1.594182    0.329521
      7          8           0        1.495691    2.800477   -0.343405
      8          1           0        0.628046    3.163476   -0.003025
      9          6           0        2.824076   -2.628022   -0.095129
     10          8           0        3.956271   -3.237503   -0.733913
     11          1           0        3.911465   -4.227058   -0.597478
     12          6           0        2.583906   -1.139710   -0.283400
     13          8           0        1.394457   -0.865187    0.470619
     14          6           0        0.913600    0.441779    0.124432
     15          8           0       -0.351950    0.472299    0.800216
     16          6           0       -1.481456    0.188968   -0.039299
     17          6           0       -2.045819   -1.156403    0.385262
     18          8           0       -1.053281   -2.136903    0.046900
     19          1           0       -0.226295   -1.788386    0.489351
     20          6           0       -3.418930   -1.541472   -0.140649
     21          8           0       -4.038787   -2.586985    0.621282
     22          1           0       -4.768954   -2.962969    0.051111
     23          6           0       -2.167425    2.660010   -0.435597
     24          8           0       -1.013879    3.364319    0.048062
     25          1           0       -1.184240    4.349172    0.062760
     26          6           0       -2.493810    1.304014    0.168363
     27          8           0       -3.723134    0.864444   -0.426548
     28          6           0       -4.302563   -0.331162    0.115080
     29          8           0       -5.464715   -0.458153   -0.717098
     30          1           0       -6.240225   -0.587292   -0.166184
     31          1           0        5.535949   -0.751746    0.519222
     32          1           0        1.949119   -3.139459   -0.438323
     33          1           0        2.914519   -2.807308    0.955859
     34          1           0        2.423738   -0.918312   -1.317919
     35          1           0        3.650755   -0.305468    1.359860
     36          1           0        3.233751    1.176175   -1.164073
     37          1           0        1.910835    1.806457    1.377885
     38          1           0        0.697847    0.420350   -0.923371
     39          1           0       -3.017494    3.292531   -0.286598
     40          1           0       -2.042892    2.522239   -1.489357
     41          1           0       -2.649083    1.429578    1.219564
     42          1           0       -1.177710    0.153777   -1.064677
     43          1           0       -2.118867   -1.139302    1.452629
     44          1           0       -3.385575   -1.783756   -1.182324
     45          1           0       -4.558652   -0.223887    1.148429
 ---------------------------------------------------------------------

 SCF Done:  E(RB3LYP) =  -1298.01352756     A.U. after   13 cycles

 The electronic state is 1-A.
 Alpha  occ. eigenvalues --  -19.19181 -19.18444 -19.17870 -19.17238 -19.17042
 Alpha  occ. eigenvalues --  -19.16722 -19.16681 -19.15678 -19.14860 -19.13831
 Alpha  occ. eigenvalues --  -19.13346 -10.30071 -10.29987 -10.25628 -10.25593
 Alpha  occ. eigenvalues --  -10.25371 -10.25209 -10.25011 -10.24777 -10.24562
 Alpha  occ. eigenvalues --  -10.24038 -10.23830 -10.23768  -1.10120  -1.08624
 Alpha  occ. eigenvalues --   -1.05809  -1.05146  -1.03931  -1.03564  -1.02160
 Alpha  occ. eigenvalues --   -1.01938  -1.01426  -1.00757  -0.99815  -0.81451
 Alpha  occ. eigenvalues --   -0.80259  -0.79334  -0.77903  -0.71996  -0.69953
 Alpha  occ. eigenvalues --   -0.66851  -0.64776  -0.63387  -0.62163  -0.61244
 Alpha  occ. eigenvalues --   -0.60249  -0.56324  -0.55707  -0.55047  -0.54285
 Alpha  occ. eigenvalues --   -0.53488  -0.53050  -0.52755  -0.52007  -0.50912
 Alpha  occ. eigenvalues --   -0.50253  -0.49934  -0.49333  -0.48784  -0.46768
 Alpha  occ. eigenvalues --   -0.46197  -0.45011  -0.43982  -0.43417  -0.43075
 Alpha  occ. eigenvalues --   -0.42851  -0.41775  -0.40916  -0.39541  -0.38928
 Alpha  occ. eigenvalues --   -0.38632  -0.37966  -0.37497  -0.36117  -0.35431
 Alpha  occ. eigenvalues --   -0.35183  -0.35028  -0.34281  -0.33823  -0.33562
 Alpha  occ. eigenvalues --   -0.32412  -0.31704  -0.31225  -0.31042  -0.29982
 Alpha  occ. eigenvalues --   -0.29013  -0.28157  -0.27742  -0.27236  -0.26566
 Alpha  occ. eigenvalues --   -0.26350
 Alpha virt. eigenvalues --   -0.02292  -0.01934  -0.01506  -0.00174   0.00223
 Alpha virt. eigenvalues --    0.01037   0.01996   0.02539   0.02695   0.03710
 Alpha virt. eigenvalues --    0.03860   0.04282   0.05098   0.05280   0.05809

 Mulliken atomic charges:
              1
     1  O   -0.434903
     2  C   -0.138800
     3  C    0.033102
     4  O   -0.467483
     5  H    0.344066
     6  C   -0.292139
     7  O   -0.468660
     8  H    0.422133
     9  C   -0.293635
    10  O   -0.437770
    11  H    0.341147
    12  C    0.009454
    13  O   -0.069633
    14  C    0.100580
    15  O   -0.001273
    16  C    0.408706
    17  C   -0.071039
    18  O   -0.457531
    19  H    0.387284
    20  C   -0.120291
    21  O   -0.443022
    22  H    0.345693
    23  C   -0.400462
    24  O   -0.497322
    25  H    0.376438
    26  C   -0.271333
    27  O   -0.041348
    28  C    0.021820
    29  O   -0.474048
    30  H    0.344233
    31  H    0.347666
    32  H    0.160175
    33  H    0.142782
    34  H    0.123894
    35  H    0.127933
    36  H    0.121948
    37  H    0.127889
    38  H    0.105683
    39  H    0.153746
    40  H    0.165671
    41  H    0.122241
    42  H    0.119399
    43  H    0.135185
    44  H    0.149396
    45  H    0.142426
 Sum of Mulliken atomic charges =   0.00000

 Dipole moment (field-independent basis, Debye):
    X=             -3.0069    Y=             -0.1963    Z=              2.5375  Tot=              3.9394
 Quadrupole moment (field-independent basis, Debye-Ang):
   XX=           -122.7985   YY=           -130.3309   ZZ=           -140.7426
   XY=            -16.9985   XZ=              6.9243   YZ=              2.5984

  Exact polarizability: 232.317   2.709 197.634   1.455  -0.111 143.873
 Approx polarizability: 272.218   2.868 257.260   1.076  -0.194 241.356

 ******    7 imaginary frequencies (negative Signs) ******

                     1                      2                      3
                     A                      A                      A
 Frequencies --  -274.0322              -254.2169              -243.2974
 Red. masses --     1.7706                 1.7760                 1.1829
 Frc consts  --     0.0783                 0.0676                 0.0413
 IR Inten    --     9.5197                 1.4257               110.0319
 Raman Activ --     0.0691                 0.0306                 0.9878

                     4                      5                      6
                     A                      A                      A
 Frequencies --  -196.7015               -75.3017               -58.1322
 Red. masses --     1.2754                 6.8471                 6.2706
 Frc consts  --     0.0291                 0.0229                 0.0125
 IR Inten    --    93.4858                 0.9111                 0.3009
 Raman Activ --     0.7711                 0.0572                 0.0226

                     7                      8                      9
                     A                      A                      A
 Frequencies --   -40.6940                61.3100                68.0947
 Red. masses --     6.0840                 5.8740                 6.1391
 Frc consts  --     0.0059                 0.0130                 0.0168
 IR Inten    --     1.2947                 2.3531                 1.6435
 Raman Activ --     0.0501                 0.1089                 0.0513

                    10                     11                     12
                     A                      A                      A
 Frequencies --    74.3798                93.8479               112.2459
 Red. masses --     6.4532                 6.7854                 5.2566
 Frc consts  --     0.0210                 0.0352                 0.0390
 IR Inten    --     1.1341                 0.7383                 1.5445
 Raman Activ --     0.0411                 0.1729                 0.0616

                    13                     14                     15
                     A                      A                      A
 Frequencies --   155.2755               173.1379               179.9766
 Red. masses --     6.1320                 5.9082                 7.1690
 Frc consts  --     0.0871                 0.1043                 0.1368
 IR Inten    --     3.0929                 2.5037                 2.7247
 Raman Activ --     0.7253                 0.1974                 0.8414

                    16                     17                     18
                     A                      A                      A
 Frequencies --   216.4981               236.3664               270.3709
 Red. masses --     6.8070                 6.1690                 5.8906
 Frc consts  --     0.1880                 0.2031                 0.2537
 IR Inten    --     0.9310                 0.8544                 3.3597
 Raman Activ --     2.0615                 0.5576                 0.1296

                    19                     20                     21
                     A                      A                      A
 Frequencies --   283.8085               296.4557               311.3203
 Red. masses --     4.3156                 5.2860                 4.5467
 Frc consts  --     0.2048                 0.2737                 0.2596
 IR Inten    --    15.4919                 3.3614                 1.8172
 Raman Activ --     0.6612                 0.3397                 0.3656

                    22                     23                     24
                     A                      A                      A
 Frequencies --   314.0952               322.0980               328.9753
 Red. masses --     6.0221                 5.4505                 4.8388
 Frc consts  --     0.3500                 0.3332                 0.3085
 IR Inten    --     1.7897                 0.5296                 0.6548
 Raman Activ --     3.0313                 0.9075                 3.2995

                    25                     26                     27
                     A                      A                      A
 Frequencies --   349.8706               362.2679               379.3790
 Red. masses --     6.6208                 4.8238                 7.1899
 Frc consts  --     0.4775                 0.3730                 0.6097
 IR Inten    --    13.9178                 5.9310                 5.7577
 Raman Activ --     3.4418                 0.4043                 1.6570

                    28                     29                     30
                     A                      A                      A
 Frequencies --   413.0230               425.3091               432.2368
 Red. masses --     3.7545                 5.5234                 5.4058
 Frc consts  --     0.3774                 0.5887                 0.5950
 IR Inten    --    22.7278                 1.9326                 1.6084
 Raman Activ --     1.9331                 5.3726                 0.8209

                    31                     32                     33
                     A                      A                      A
 Frequencies --   445.4187               475.8118               491.9846
 Red. masses --     5.1120                 4.4877                 4.1874
 Frc consts  --     0.5976                 0.5986                 0.5972
 IR Inten    --     3.0712                 4.7361                 8.2406
 Raman Activ --     2.1327                 5.6642                 0.3729

                    34                     35                     36
                     A                      A                      A
 Frequencies --   515.5928               533.9612               562.9717
 Red. masses --     3.8761                 3.2408                 3.5743
 Frc consts  --     0.6071                 0.5444                 0.6674
 IR Inten    --    14.1476                17.3569                16.8774
 Raman Activ --     2.0736                 4.0943                 0.6522

                    37                     38                     39
                     A                      A                      A
 Frequencies --   580.5022               595.3341               625.6853
 Red. masses --     3.2362                 5.4277                 3.8495
 Frc consts  --     0.6425                 1.1334                 0.8879
 IR Inten    --    21.7181                 8.9161                 9.7034
 Raman Activ --     1.2141                 0.6549                 0.1902

                    40                     41                     42
                     A                      A                      A
 Frequencies --   636.7713               660.2435               672.3851
 Red. masses --     4.6179                 1.1433                 1.0981
 Frc consts  --     1.1032                 0.2936                 0.2925
 IR Inten    --    30.6532                60.5898               112.8264
 Raman Activ --     1.6282                 1.5575                 1.6924

                    43                     44                     45
                     A                      A                      A
 Frequencies --   701.9229               705.6110               723.1905
 Red. masses --     5.1526                 1.0617                 1.1105
 Frc consts  --     1.4957                 0.3114                 0.3422
 IR Inten    --    10.6790               104.3664                88.7495
 Raman Activ --     0.2628                 1.9309                 1.4905

                    46                     47                     48
                     A                      A                      A
 Frequencies --   756.2835               833.1165               851.0259
 Red. masses --     1.0711                 1.0969                 1.7078
 Frc consts  --     0.3609                 0.4486                 0.7288
 IR Inten    --   175.5970               136.3705                 2.2331
 Raman Activ --     2.3026                 3.9186                 0.8111

                    49                     50                     51
                     A                      A                      A
 Frequencies --   852.0332               928.4752               949.1713
 Red. masses --     1.7842                 5.6023                 5.6552
 Frc consts  --     0.7631                 2.8455                 3.0018
 IR Inten    --     1.4513               220.1049                15.9318
 Raman Activ --     0.9253                 4.0260                 0.5372

                    52                     53                     54
                     A                      A                      A
 Frequencies --   983.5100               984.3338               993.6441
 Red. masses --     6.4655                 7.5927                 4.0556
 Frc consts  --     3.6848                 4.3344                 2.3592
 IR Inten    --    87.4351                56.0401                21.3592
 Raman Activ --     3.1694                 2.1491                 0.9129

                    55                     56                     57
                     A                      A                      A
 Frequencies --   997.0671              1016.6313              1027.6675
 Red. masses --     5.8885                 6.2978                 6.5248
 Frc consts  --     3.4491                 3.8350                 4.0600
 IR Inten    --   448.4383                46.7562               122.4039
 Raman Activ --     2.1519                 2.8440                 2.1338

                    58                     59                     60
                     A                      A                      A
 Frequencies --  1041.6127              1054.4411              1062.8320
 Red. masses --     5.2860                 5.0420                 5.0289
 Frc consts  --     3.3790                 3.3029                 3.3469
 IR Inten    --   207.6668                71.6883               169.7569
 Raman Activ --     2.7675                 3.0298                 5.7790

                    61                     62                     63
                     A                      A                      A
 Frequencies --  1064.0197              1073.3606              1079.5876
 Red. masses --     3.4187                 3.8219                 5.8237
 Frc consts  --     2.2804                 2.5943                 3.9991
 IR Inten    --    40.7774                13.6896                33.0209
 Raman Activ --     5.0424                24.3805                 5.5324

                    64                     65                     66
                     A                      A                      A
 Frequencies --  1094.0427              1099.1046              1108.0786
 Red. masses --     2.1368                 3.1282                 3.6313
 Frc consts  --     1.5069                 2.2265                 2.6270
 IR Inten    --   110.8617               100.1637                29.0957
 Raman Activ --     3.1964                10.2773                 1.5014

                    67                     68                     69
                     A                      A                      A
 Frequencies --  1113.3836              1125.9345              1138.6205
 Red. masses --     2.7742                 2.3131                 2.7787
 Frc consts  --     2.0262                 1.7277                 2.1225
 IR Inten    --     8.1674                17.6981                23.5840
 Raman Activ --     1.8861                 7.1768                 1.8175

                    70                     71                     72
                     A                      A                      A
 Frequencies --  1144.7002              1147.3013              1154.9418
 Red. masses --     2.3506                 1.6030                 1.9914
 Frc consts  --     1.8147                 1.2432                 1.5650
 IR Inten    --    17.2975                 1.9255                 7.8264
 Raman Activ --     3.2650                 3.6687                 5.2949

                    73                     74                     75
                     A                      A                      A
 Frequencies --  1167.0226              1169.7288              1182.0000
 Red. masses --     1.5037                 1.8632                 2.4366
 Frc consts  --     1.2066                 1.5020                 2.0057
 IR Inten    --     2.6726                 1.6554                42.2510
 Raman Activ --     0.9385                 1.1225                 2.3404

                    76                     77                     78
                     A                      A                      A
 Frequencies --  1189.1782              1204.0712              1217.2173
 Red. masses --     1.3650                 1.3019                 1.2007
 Frc consts  --     1.1373                 1.1121                 1.0482
 IR Inten    --    17.1598                 8.2996                11.6420
 Raman Activ --     5.5704                 3.1393                 1.4446

                    79                     80                     81
                     A                      A                      A
 Frequencies --  1235.5631              1252.4350              1254.6232
 Red. masses --     1.3187                 1.3677                 1.3113
 Frc consts  --     1.1861                 1.2640                 1.2161
 IR Inten    --     9.0771                 8.1682                43.4584
 Raman Activ --     0.3241                 1.9851                 0.6235

                    82                     83                     84
                     A                      A                      A
 Frequencies --  1267.3480              1270.4033              1276.6327
 Red. masses --     1.3601                 1.2587                 1.2219
 Frc consts  --     1.2871                 1.1969                 1.1734
 IR Inten    --    25.9058                24.9240                 4.5692
 Raman Activ --     1.9922                 1.3991                 3.8686

                    85                     86                     87
                     A                      A                      A
 Frequencies --  1282.3759              1287.0829              1297.1932
 Red. masses --     1.2784                 1.3332                 1.3022
 Frc consts  --     1.2386                 1.3012                 1.2910
 IR Inten    --     3.1009                 8.5125                14.2829
 Raman Activ --     4.5863                 1.8996                 5.6246

                    88                     89                     90
                     A                      A                      A
 Frequencies --  1307.6732              1314.2676              1325.5213
 Red. masses --     1.2380                 1.2208                 1.3193
 Frc consts  --     1.2473                 1.2424                 1.3657
 IR Inten    --    20.2650                16.0177                35.7273
 Raman Activ --     6.4051                 4.3404                10.0752

                    91                     92                     93
                     A                      A                      A
 Frequencies --  1333.5211              1340.9425              1352.1432
 Red. masses --     1.2547                 1.2583                 1.1956
 Frc consts  --     1.3146                 1.3331                 1.2879
 IR Inten    --    33.3950                14.3850                31.9168
 Raman Activ --     4.9049                 1.9931                 2.4955

                    94                     95                     96
                     A                      A                      A
 Frequencies --  1358.2751              1362.7111              1373.5366
 Red. masses --     1.4653                 1.5586                 1.6849
 Frc consts  --     1.5928                 1.7053                 1.8729
 IR Inten    --    17.7397                 9.3533                 3.0391
 Raman Activ --     3.1262                 5.9803                 6.0292

                    97                     98                     99
                     A                      A                      A
 Frequencies --  1384.2375              1385.5821              1417.8415
 Red. masses --     1.1588                 1.5695                 1.2475
 Frc consts  --     1.3082                 1.7753                 1.4775
 IR Inten    --     7.4698                10.7497                 3.4093
 Raman Activ --     1.2918                 5.6811                 5.7440

                   100                    101                    102
                     A                      A                      A
 Frequencies --  1429.9147              1439.8320              1440.7208
 Red. masses --     1.3716                 1.3102                 1.4457
 Frc consts  --     1.6524                 1.6004                 1.7680
 IR Inten    --    62.5520                28.7552                32.2435
 Raman Activ --     3.2656                 2.2095                 0.6497

                   103                    104                    105
                     A                      A                      A
 Frequencies --  1459.3440              1462.8866              1468.1299
 Red. masses --     1.3095                 1.0767                 1.1543
 Frc consts  --     1.6432                 1.3576                 1.4659
 IR Inten    --    12.3237                 4.3476                 2.9194
 Raman Activ --     3.4132                 4.6971                 1.9785

                   106                    107                    108
                     A                      A                      A
 Frequencies --  1492.5144              1524.4598              3253.1372
 Red. masses --     1.2352                 1.2644                 1.0729
 Frc consts  --     1.6212                 1.7312                 6.6898
 IR Inten    --    37.9894                51.2240               120.4664
 Raman Activ --     1.5957                 2.9058                44.2380

                   109                    110                    111
                     A                      A                      A
 Frequencies --  3254.3095              3256.2766              3258.3031
 Red. masses --     1.0598                 1.0798                 1.0685
 Frc consts  --     6.6127                 6.7459                 6.6836
 IR Inten    --    43.4223                69.6924               214.3618
 Raman Activ --   140.8340                22.9945                67.3653

                   112                    113                    114
                     A                      A                      A
 Frequencies --  3269.0096              3269.6611              3272.2425
 Red. masses --     1.0698                 1.0819                 1.0775
 Frc consts  --     6.7360                 6.8148                 6.7977
 IR Inten    --   175.7001                38.7326                99.9531
 Raman Activ --   296.4002                14.5185                70.9846

                   115                    116                    117
                     A                      A                      A
 Frequencies --  3276.7916              3278.9938              3288.6658
 Red. masses --     1.0830                 1.0838                 1.0825
 Frc consts  --     6.8513                 6.8657                 6.8978
 IR Inten    --    27.2547                18.6858               105.6225
 Raman Activ --   122.7354                38.2573                 8.0844

                   118                    119                    120
                     A                      A                      A
 Frequencies --  3291.1837              3293.1276              3295.1422
 Red. masses --     1.0821                 1.0864                 1.0770
 Frc consts  --     6.9059                 6.9416                 6.8898
 IR Inten    --   245.8985                 6.2492               326.5046
 Raman Activ --    41.3216               120.3595                51.9347

                   121                    122                    123
                     A                      A                      A
 Frequencies --  3306.9325              3309.6758              3319.0622
 Red. masses --     1.0871                 1.1033                 1.1053
 Frc consts  --     7.0042                 7.1206                 7.1740
 IR Inten    --    33.6643                78.8239                48.6440
 Raman Activ --     7.2994                42.1132                33.9452

                   124                    125                    126
                     A                      A                      A
 Frequencies --  3350.5948              3356.7244              3365.9289
 Red. masses --     1.0656                 1.0672                 1.0665
 Frc consts  --     7.0486                 7.0845                 7.1193
 IR Inten    --    38.8074                44.7025                62.9984
 Raman Activ --    91.3787               174.0239               110.2957

                   127                    128                    129
                     A                      A                      A
 Frequencies --  3366.6090              3872.2855              3878.5158
 Red. masses --     1.0686                 1.0677                 1.0673
 Frc consts  --     7.1360                 9.4329                 9.4595
 IR Inten    --    42.8299                68.7377                63.7630
 Raman Activ --   173.0866                90.7471               122.5050

 - Thermochemistry -
 -------------------
 Temperature   298.150 Kelvin.  Pressure   1.00000 Atm.
 Atom     1 has atomic number  8 and mass  15.99491

 Molecular mass:   342.11621 amu.
 Principal axes and moments of inertia in atomic units:
                           1         2         3
     Eigenvalues --  4449.78912********************
           X            0.99997  -0.00770   0.00070
           Y            0.00770   0.99997  -0.00067
           Z           -0.00069   0.00067   1.00000
 This molecule is an asymmetric top.
 Rotational symmetry number  1.
 Warning -- assumption of classical behavior for rotation
           may cause significant error
 Rotational temperatures (Kelvin)      0.01946     0.00712     0.00537
 Rotational constants (GHZ):           0.40558     0.14826     0.11199
    7 imaginary frequencies ignored.
 Zero-point vibrational energy     972999.1 (Joules/Mol)
                                  232.55237 (Kcal/Mol)
 Warning -- explicit consideration of  31 degrees of freedom as
           vibrations may cause significant error
 Vibrational temperatures:     88.21    97.97   107.02   135.03   161.50
          (Kelvin)            223.41   249.11   258.95   311.49   340.08
                              389.00   408.34   426.53   447.92   451.91
                              463.43   473.32   503.39   521.22   545.84
                              594.25   611.92   621.89   640.86   684.59
                              707.86   741.82   768.25   809.99   835.21
                              856.55   900.22   916.17   949.94   967.41
                             1009.91  1015.22  1040.51  1088.12  1198.67
                             1224.43  1225.88  1335.87  1365.64  1415.05
                             1416.24  1429.63  1434.56  1462.70  1478.58
                             1498.65  1517.10  1529.18  1530.89  1544.32
                             1553.28  1574.08  1581.36  1594.28  1601.91
                             1619.97  1638.22  1646.97  1650.71  1661.70
                             1679.08  1682.98  1700.63  1710.96  1732.39
                             1751.30  1777.70  1801.97  1805.12  1823.43
                             1827.82  1836.79  1845.05  1851.82  1866.37
                             1881.45  1890.94  1907.13  1918.64  1929.31
                             1945.43  1954.25  1960.63  1976.21  1991.61
                             1993.54  2039.96  2057.33  2071.59  2072.87
                             2099.67  2104.76  2112.31  2147.39  2193.35
                             4680.53  4682.22  4685.05  4687.97  4703.37
                             4704.31  4708.02  4714.57  4717.73  4731.65
                             4735.27  4738.07  4740.97  4757.93  4761.88
                             4775.38  4820.75  4829.57  4842.81  4843.79
                             5571.35  5580.31

 Zero-point correction=                           0.370596 (Hartree/Particle)
 Thermal correction to Energy=                    0.388857
 Thermal correction to Enthalpy=                  0.389801
 Thermal correction to Gibbs Free Energy=         0.325391
 Sum of electronic and zero-point Energies=          -1297.642932
 Sum of electronic and thermal Energies=             -1297.624670
 Sum of electronic and thermal Enthalpies=           -1297.623726
 Sum of electronic and thermal Free Energies=        -1297.688136

                     E (Thermal)             CV                S
                      KCal/Mol        Cal/Mol-Kelvin    Cal/Mol-Kelvin
 Total                  244.012             76.037            135.562
 Electronic               0.000              0.000              0.000
 Translational            0.889              2.981             43.384
 Rotational               0.889              2.981             35.122
 Vibrational            242.234             70.075             57.056
 Vibration     1          0.597              1.973              4.415
 Vibration     2          0.598              1.969              4.208
 Vibration     3          0.599              1.966              4.034
 Vibration     4          0.603              1.954              3.578
 Vibration     5          0.607              1.939              3.230
 Vibration     6          0.620              1.897              2.607
 Vibration     7          0.627              1.876              2.401
 Vibration     8          0.629              1.867              2.329
 Vibration     9          0.645              1.816              1.988
 Vibration    10          0.655              1.785              1.830
 Vibration    11          0.674              1.728              1.594
 Vibration    12          0.682              1.704              1.511
 Vibration    13          0.690              1.680              1.437
 Vibration    14          0.700              1.652              1.355
 Vibration    15          0.702              1.647              1.341
 Vibration    16          0.707              1.631              1.299
 Vibration    17          0.712              1.618              1.265
 Vibration    18          0.727              1.576              1.167
 Vibration    19          0.736              1.550              1.112
 Vibration    20          0.749              1.514              1.042
 Vibration    21          0.777              1.442              0.916
 Vibration    22          0.787              1.415              0.874
 Vibration    23          0.793              1.400              0.851
 Vibration    24          0.805              1.371              0.810
 Vibration    25          0.832              1.304              0.721
 Vibration    26          0.848              1.268              0.678
 Vibration    27          0.871              1.215              0.620
 Vibration    28          0.889              1.175              0.578
 Vibration    29          0.919              1.111              0.518
 Vibration    30          0.937              1.073              0.484
 Vibration    31          0.953              1.042              0.458

 Normal termination of Gaussian 09 at Fri Feb 12 12:45:38 2016.
