 Gaussian 09, Revision B.01,
 Gaussian 09:  EM64L-G09RevB.01 12-Aug-2010

 ------------------------------------------------
 # freq=raman b3lyp/6-31+g(d,p) geom=connectivity
 ------------------------------------------------

 ------------
 450 9000.com
 ------------
 Symbolic Z-matrix:
 Charge =  0 Multiplicity = 1

                         Standard orientation:
 ---------------------------------------------------------------------
 Center     Atomic      Atomic             Coordinates (Angstroms)
 Number     Number       Type             X           Y           Z
 ---------------------------------------------------------------------
      1          8           0        5.017484   -0.510613   -0.759458
      2          6           0        3.849902   -0.189108    0.009096
      3          6           0        3.420464    1.257186   -0.177420
      4          8           0        4.485496    2.133452    0.216231
      5          1           0        5.397368    1.799606   -0.025019
      6          6           0        2.007730    1.575607    0.284769
      7          8           0        1.739868    2.854877   -0.308315
      8          1           0        2.448382    3.551011   -0.189377
      9          6           0        3.260677   -2.410310    0.250005
     10          8           0        2.387672   -3.491028    0.606842
     11          1           0        3.009756   -4.246735    0.811302
     12          6           0        2.701080   -1.123672   -0.333402
     13          8           0        1.476851   -0.731582    0.304022
     14          6           0        0.925789    0.553110   -0.021844
     15          8           0       -0.248915    0.796415    0.766383
     16          6           0       -1.355716    0.319643   -0.012007
     17          6           0       -1.747300   -1.140857    0.145617
     18          8           0       -0.769401   -1.973696   -0.494250
     19          1           0        0.119012   -1.694956   -0.131829
     20          6           0       -3.140149   -1.541771   -0.312860
     21          8           0       -3.455825   -2.941859   -0.304277
     22          1           0       -2.812956   -3.431379   -0.893343
     23          6           0       -2.204143    2.471978   -0.161506
     24          8           0       -3.123853    3.562808   -0.013665
     25          1           0       -2.847439    4.480906   -0.296389
     26          6           0       -2.559621    1.125463    0.448192
     27          8           0       -3.885796    0.719671    0.080471
     28          6           0       -4.210073   -0.659469    0.307669
     29          8           0       -5.503285   -0.689759   -0.313592
     30          1           0       -6.113845   -0.148083    0.191784
     31          1           0        5.788776   -0.108683   -0.353058
     32          1           0        3.806235   -2.143880    1.131073
     33          1           0        3.963862   -2.795995   -0.458287
     34          1           0        2.576956   -1.205787   -1.393001
     35          1           0        4.089568   -0.328960    1.042489
     36          1           0        3.369251    1.378145   -1.239326
     37          1           0        2.035065    1.706679    1.346358
     38          1           0        0.678270    0.588048   -1.062235
     39          1           0       -2.052542    2.319748   -1.209716
     40          1           0       -1.270700    2.779536    0.261568
     41          1           0       -2.519386    1.213482    1.513806
     42          1           0       -1.170767    0.523413   -1.046015
     43          1           0       -1.698571   -1.356811    1.192464
     44          1           0       -3.155638   -1.282078   -1.350752
     45          1           0       -4.294874   -0.853499    1.356507
 ---------------------------------------------------------------------

 SCF Done:  E(RB3LYP) =  -1297.89384217     A.U. after   14 cycles

 The electronic state is 1-A.
 Alpha  occ. eigenvalues --  -19.21564 -19.21271 -19.20885 -19.20119 -19.17961
 Alpha  occ. eigenvalues --  -19.17576 -19.16667 -19.15749 -19.15560 -19.14546
 Alpha  occ. eigenvalues --  -19.14496 -10.33402 -10.29473 -10.28472 -10.27751
 Alpha  occ. eigenvalues --  -10.27700 -10.27082 -10.25826 -10.25499 -10.24564
 Alpha  occ. eigenvalues --  -10.24507 -10.24275 -10.22738  -1.11892  -1.08593
 Alpha  occ. eigenvalues --   -1.07216  -1.06370  -1.05751  -1.03573  -1.03427
 Alpha  occ. eigenvalues --   -1.02310  -1.00566  -1.00178  -0.99291  -0.84170
 Alpha  occ. eigenvalues --   -0.82488  -0.79849  -0.78107  -0.72791  -0.69634
 Alpha  occ. eigenvalues --   -0.68568  -0.65497  -0.65277  -0.63177  -0.61722
 Alpha  occ. eigenvalues --   -0.59808  -0.58322  -0.56682  -0.56392  -0.55142
 Alpha  occ. eigenvalues --   -0.54523  -0.53226  -0.53018  -0.52645  -0.51498
 Alpha  occ. eigenvalues --   -0.51162  -0.50340  -0.49591  -0.49030  -0.46966
 Alpha  occ. eigenvalues --   -0.46401  -0.45753  -0.45625  -0.44443  -0.43348
 Alpha  occ. eigenvalues --   -0.42833  -0.42661  -0.41335  -0.40258  -0.39960
 Alpha  occ. eigenvalues --   -0.39551  -0.38812  -0.37315  -0.36418  -0.36301
 Alpha  occ. eigenvalues --   -0.35806  -0.35221  -0.34696  -0.33778  -0.33550
 Alpha  occ. eigenvalues --   -0.32552  -0.31601  -0.30944  -0.30826  -0.29801
 Alpha  occ. eigenvalues --   -0.29201  -0.28728  -0.27623  -0.27564  -0.26645
 Alpha  occ. eigenvalues --   -0.26073
 Alpha virt. eigenvalues --   -0.05050  -0.02382  -0.00771  -0.00126   0.00521
 Alpha virt. eigenvalues --    0.01347   0.01359   0.01979   0.02448   0.02931
 Alpha virt. eigenvalues --    0.03687   0.04252   0.04775   0.05528   0.05550

 Mulliken atomic charges:
              1
     1  O   -0.500285
     2  C   -0.194349
     3  C    0.063764
     4  O   -0.530730
     5  H    0.328461
     6  C    0.162832
     7  O   -0.533573
     8  H    0.381424
     9  C   -0.246017
    10  O   -0.516338
    11  H    0.349806
    12  C    0.199897
    13  O   -0.423279
    14  C    0.235607
    15  O   -0.256633
    16  C    0.084873
    17  C    0.113589
    18  O   -0.572854
    19  H    0.440739
    20  C   -0.185616
    21  O   -0.480798
    22  H    0.370246
    23  C   -0.194065
    24  O   -0.577628
    25  H    0.359584
    26  C   -0.142771
    27  O   -0.325043
    28  C    0.442748
    29  O   -0.490553
    30  H    0.354205
    31  H    0.339295
    32  H    0.114570
    33  H    0.160394
    34  H    0.158711
    35  H    0.138539
    36  H    0.150227
    37  H    0.153052
    38  H    0.125193
    39  H    0.117621
    40  H    0.166147
    41  H    0.143121
    42  H    0.115722
    43  H    0.141002
    44  H    0.140142
    45  H    0.119020
 Sum of Mulliken atomic charges =   0.00000

 Dipole moment (field-independent basis, Debye):
    X=              9.9731    Y=              1.4658    Z=              0.6815  Tot=             10.1033
 Quadrupole moment (field-independent basis, Debye-Ang):
   XX=           -124.8516   YY=           -137.9559   ZZ=           -138.8847
   XY=             -9.1997   XZ=             -3.0202   YZ=             -3.3752

  Exact polarizability: 223.386   1.900 198.205  -2.214  -0.434 140.638
 Approx polarizability: 263.253   1.233 254.247  -2.593   1.149 228.603

 ******    8 imaginary frequencies (negative Signs) ******

                     1                      2                      3
                     A                      A                      A
 Frequencies --  -339.2658              -310.4485              -286.3690
 Red. masses --     1.0815                 1.7634                 1.6489
 Frc consts  --     0.0733                 0.1001                 0.0797
 IR Inten    --   142.5611                 2.6368                15.5383
 Raman Activ --     1.9163                 0.1683                 0.4038

                     4                      5                      6
                     A                      A                      A
 Frequencies --  -285.7475               -93.1024               -76.4446
 Red. masses --     1.2189                 6.8364                 6.5318
 Frc consts  --     0.0586                 0.0349                 0.0225
 IR Inten    --   104.2051                 1.9783                 0.5499
 Raman Activ --     0.7744                 0.0294                 0.0742

                     7                      8                      9
                     A                      A                      A
 Frequencies --   -59.9345               -42.9264                13.0335
 Red. masses --     6.1847                 6.9500                 7.7174
 Frc consts  --     0.0131                 0.0075                 0.0008
 IR Inten    --     0.1390                 1.1206                 4.0731
 Raman Activ --     0.0625                 0.0165                 0.0082

                    10                     11                     12
                     A                      A                      A
 Frequencies --    57.4065                79.1040                93.1681
 Red. masses --     6.8382                 7.0442                 6.2827
 Frc consts  --     0.0133                 0.0260                 0.0321
 IR Inten    --     0.4645                 2.4617                 0.1215
 Raman Activ --     0.0433                 0.2075                 0.1163

                    13                     14                     15
                     A                      A                      A
 Frequencies --   117.5531               168.7189               185.1324
 Red. masses --     6.1341                 6.5184                 6.0151
 Frc consts  --     0.0499                 0.1093                 0.1215
 IR Inten    --     3.7241                 3.5940                 2.1135
 Raman Activ --     0.6925                 1.1250                 0.8098

                    16                     17                     18
                     A                      A                      A
 Frequencies --   204.9613               213.9445               229.9681
 Red. masses --     6.5508                 6.2488                 5.8989
 Frc consts  --     0.1621                 0.1685                 0.1838
 IR Inten    --     2.4596                 4.8397                12.6414
 Raman Activ --     0.5584                 1.6795                 1.0521

                    19                     20                     21
                     A                      A                      A
 Frequencies --   265.9923               278.4097               304.2597
 Red. masses --     5.7770                 6.3922                 4.4038
 Frc consts  --     0.2408                 0.2919                 0.2402
 IR Inten    --     4.2317                 2.1718                 7.7822
 Raman Activ --     0.2172                 0.2610                 1.0499

                    22                     23                     24
                     A                      A                      A
 Frequencies --   321.4216               331.2016               350.0560
 Red. masses --     4.2954                 5.7800                 7.4653
 Frc consts  --     0.2615                 0.3736                 0.5390
 IR Inten    --    30.3578                 1.6662                 1.0822
 Raman Activ --     0.2487                 2.1576                 2.7247

                    25                     26                     27
                     A                      A                      A
 Frequencies --   360.2588               384.5418               390.7447
 Red. masses --     5.9234                 5.5294                 5.0740
 Frc consts  --     0.4530                 0.4817                 0.4564
 IR Inten    --     6.7797                 7.9896                10.8958
 Raman Activ --     4.1298                 1.3143                 0.3257

                    28                     29                     30
                     A                      A                      A
 Frequencies --   415.9515               424.7019               436.3788
 Red. masses --     6.5018                 6.1974                 6.5918
 Frc consts  --     0.6628                 0.6586                 0.7396
 IR Inten    --     4.5396                 9.4404                 0.1902
 Raman Activ --     5.5502                 0.6068                 1.6169

                    31                     32                     33
                     A                      A                      A
 Frequencies --   449.7811               483.5473               503.1390
 Red. masses --     3.4083                 3.5660                 5.0491
 Frc consts  --     0.4062                 0.4913                 0.7531
 IR Inten    --    27.8739                 8.8983                 6.5747
 Raman Activ --     2.4886                 0.8064                 3.1370

                    34                     35                     36
                     A                      A                      A
 Frequencies --   521.7725               551.9644               570.9157
 Red. masses --     5.0838                 2.9764                 1.4970
 Frc consts  --     0.8155                 0.5343                 0.2875
 IR Inten    --    14.1730                17.0049                95.5159
 Raman Activ --     2.9253                 3.6743                 5.1591

                    37                     38                     39
                     A                      A                      A
 Frequencies --   574.9992               584.2675               588.9470
 Red. masses --     2.7922                 1.2580                 2.1488
 Frc consts  --     0.5439                 0.2530                 0.4391
 IR Inten    --    40.9015               103.2067                 6.2200
 Raman Activ --     2.1969                 1.9306                 1.2443

                    40                     41                     42
                     A                      A                      A
 Frequencies --   611.1441               625.7998               648.0023
 Red. masses --     2.9869                 3.5709                 2.8532
 Frc consts  --     0.6573                 0.8240                 0.7059
 IR Inten    --    32.8090                 3.8939                47.2593
 Raman Activ --     0.4802                 0.4717                 0.6394

                    43                     44                     45
                     A                      A                      A
 Frequencies --   663.8170               680.3283               684.3559
 Red. masses --     1.2639                 1.7404                 1.4960
 Frc consts  --     0.3281                 0.4746                 0.4128
 IR Inten    --    62.4762               157.0390                52.7807
 Raman Activ --     1.2304                 0.5456                 1.3299

                    46                     47                     48
                     A                      A                      A
 Frequencies --   693.2656               833.0890               838.0939
 Red. masses --     1.1306                 2.4569                 2.1813
 Frc consts  --     0.3202                 1.0046                 0.9027
 IR Inten    --    92.8802                13.3973                22.4727
 Raman Activ --     2.4075                 2.3737                 6.2562

                    49                     50                     51
                     A                      A                      A
 Frequencies --   861.9776               949.0342               954.3226
 Red. masses --     1.1347                 6.1771                 5.9274
 Frc consts  --     0.4967                 3.2779                 3.1806
 IR Inten    --    65.2291               152.0109               196.3936
 Raman Activ --     1.4983                 1.2219                 2.6170

                    52                     53                     54
                     A                      A                      A
 Frequencies --   978.7691               982.9118               991.4585
 Red. masses --     5.0162                 5.0697                 4.1533
 Frc consts  --     2.8313                 2.8858                 2.4054
 IR Inten    --     4.9473                56.7971                 8.9484
 Raman Activ --     5.3032                 3.1216                 1.0411

                    55                     56                     57
                     A                      A                      A
 Frequencies --  1002.9365              1013.1263              1017.8379
 Red. masses --     1.8609                 5.0832                 3.7557
 Frc consts  --     1.1029                 3.0740                 2.2924
 IR Inten    --    29.6196                28.5360               429.9133
 Raman Activ --     2.2736                 1.3057                 1.5980

                    58                     59                     60
                     A                      A                      A
 Frequencies --  1027.3389              1049.2522              1067.7037
 Red. masses --     4.8233                 3.5161                 5.0607
 Frc consts  --     2.9993                 2.2807                 3.3991
 IR Inten    --   155.3193               396.6257               119.5063
 Raman Activ --     0.1977                 2.8444                 2.8410

                    61                     62                     63
                     A                      A                      A
 Frequencies --  1077.8160              1081.6142              1092.1335
 Red. masses --     4.4597                 5.7329                 3.0370
 Frc consts  --     3.0524                 3.9516                 2.1343
 IR Inten    --    10.6529                36.2812                16.5556
 Raman Activ --     8.3075                13.8899                 4.4729

                    64                     65                     66
                     A                      A                      A
 Frequencies --  1096.1068              1102.9899              1116.6464
 Red. masses --     3.8356                 4.5811                 3.0567
 Frc consts  --     2.7151                 3.2837                 2.2456
 IR Inten    --    71.5679                43.7178                40.0448
 Raman Activ --     3.2371                11.8992                 3.8213

                    67                     68                     69
                     A                      A                      A
 Frequencies --  1125.8186              1141.6266              1150.0048
 Red. masses --     2.4281                 2.5517                 2.5674
 Frc consts  --     1.8132                 1.9594                 2.0005
 IR Inten    --    30.3736                 5.8460                25.5363
 Raman Activ --     1.9278                 4.1201                 2.2247

                    70                     71                     72
                     A                      A                      A
 Frequencies --  1151.0251              1157.9142              1164.6853
 Red. masses --     2.7576                 2.3150                 2.8681
 Frc consts  --     2.1526                 1.8287                 2.2923
 IR Inten    --    22.6858                 9.8203                 9.9836
 Raman Activ --     7.7723                 3.1725                 3.4588

                    73                     74                     75
                     A                      A                      A
 Frequencies --  1177.1120              1193.3591              1195.7497
 Red. masses --     1.8719                 1.6228                 1.6162
 Frc consts  --     1.5282                 1.3617                 1.3616
 IR Inten    --    49.1822                54.4709                21.3037
 Raman Activ --     3.6781                 1.6826                 1.5277

                    76                     77                     78
                     A                      A                      A
 Frequencies --  1203.7203              1222.8691              1236.9102
 Red. masses --     1.6219                 1.3525                 1.2475
 Frc consts  --     1.3846                 1.1916                 1.1245
 IR Inten    --    34.4611                26.1523                11.0304
 Raman Activ --     3.7285                 2.8836                 2.6885

                    79                     80                     81
                     A                      A                      A
 Frequencies --  1250.0142              1256.9179              1262.3489
 Red. masses --     1.3553                 1.3438                 1.3340
 Frc consts  --     1.2477                 1.2509                 1.2525
 IR Inten    --     4.7320                44.2478                 9.1452
 Raman Activ --     0.9212                 6.3352                 0.9882

                    82                     83                     84
                     A                      A                      A
 Frequencies --  1265.3251              1277.9606              1290.6601
 Red. masses --     1.4334                 1.2282                 1.2972
 Frc consts  --     1.3521                 1.1819                 1.2732
 IR Inten    --    11.0925                 6.4129                20.7442
 Raman Activ --     3.0418                 2.9711                 2.4564

                    85                     86                     87
                     A                      A                      A
 Frequencies --  1297.3732              1300.8879              1307.1479
 Red. masses --     1.1665                 1.2300                 1.1391
 Frc consts  --     1.1568                 1.2264                 1.1467
 IR Inten    --    22.6141                43.1950                 0.5014
 Raman Activ --     5.6846                 4.6897                 4.8675

                    88                     89                     90
                     A                      A                      A
 Frequencies --  1323.4608              1325.1870              1334.5913
 Red. masses --     1.3314                 1.2395                 1.1942
 Frc consts  --     1.3740                 1.2825                 1.2532
 IR Inten    --    33.3736                15.1093                26.3911
 Raman Activ --    10.3397                 3.1696                 0.4170

                    91                     92                     93
                     A                      A                      A
 Frequencies --  1336.0684              1350.5295              1364.5157
 Red. masses --     1.3684                 1.3326                 1.2546
 Frc consts  --     1.4392                 1.4321                 1.3763
 IR Inten    --    15.7223                30.2815                10.8059
 Raman Activ --     1.1478                 2.5291                 2.3847

                    94                     95                     96
                     A                      A                      A
 Frequencies --  1374.7911              1380.3952              1388.5321
 Red. masses --     1.3134                 1.4246                 1.2972
 Frc consts  --     1.4625                 1.5994                 1.4735
 IR Inten    --    37.0908                 7.7799                13.8209
 Raman Activ --     0.9379                 0.6833                 9.4152

                    97                     98                     99
                     A                      A                      A
 Frequencies --  1391.0042              1403.9171              1411.4051
 Red. masses --     1.4327                 1.4678                 1.3750
 Frc consts  --     1.6332                 1.7045                 1.6138
 IR Inten    --     7.7876                21.6580                17.0744
 Raman Activ --     4.6689                 5.7869                 1.1739

                   100                    101                    102
                     A                      A                      A
 Frequencies --  1416.7420              1434.2284              1447.5978
 Red. masses --     1.2729                 1.3227                 1.3628
 Frc consts  --     1.5053                 1.6031                 1.6825
 IR Inten    --    31.3272                11.5578                11.8094
 Raman Activ --     7.2324                 0.8397                 4.6278

                   103                    104                    105
                     A                      A                      A
 Frequencies --  1452.6149              1475.0050              1477.5605
 Red. masses --     1.5914                 1.0735                 1.0723
 Frc consts  --     1.9784                 1.3760                 1.3793
 IR Inten    --    15.6893                 1.2974                 4.3348
 Raman Activ --     5.9015                 5.3494                 5.8191

                   106                    107                    108
                     A                      A                      A
 Frequencies --  1505.4043              1521.0126              3258.8457
 Red. masses --     1.2642                 1.2397                 1.0649
 Frc consts  --     1.6880                 1.6898                 6.6630
 IR Inten    --     1.8114                37.3057                38.9628
 Raman Activ --     0.9390                 1.5191                22.6726

                   109                    110                    111
                     A                      A                      A
 Frequencies --  3263.6201              3270.4128              3271.2414
 Red. masses --     1.0616                 1.0792                 1.0796
 Frc consts  --     6.6623                 6.8009                 6.8070
 IR Inten    --    39.7235                25.9265                 3.4079
 Raman Activ --    47.8712               130.7880               171.9904

                   112                    113                    114
                     A                      A                      A
 Frequencies --  3280.5069              3288.3552              3289.2845
 Red. masses --     1.0822                 1.0831                 1.0824
 Frc consts  --     6.8617                 6.9004                 6.8999
 IR Inten    --    37.0713                 9.6248                31.3364
 Raman Activ --    12.1426                46.7283                 5.6122

                   115                    116                    117
                     A                      A                      A
 Frequencies --  3294.3453              3297.5712              3299.9159
 Red. masses --     1.0817                 1.0803                 1.0812
 Frc consts  --     6.9166                 6.9211                 6.9369
 IR Inten    --   158.6736               192.7329               263.0030
 Raman Activ --    70.9490                49.8510               195.9627

                   118                    119                    120
                     A                      A                      A
 Frequencies --  3304.2348              3306.4987              3312.4825
 Red. masses --     1.0852                 1.0880                 1.0848
 Frc consts  --     6.9808                 7.0081                 7.0132
 IR Inten    --    50.4058                35.7078               173.9285
 Raman Activ --    26.0235                43.4532                87.6320

                   121                    122                    123
                     A                      A                      A
 Frequencies --  3326.7548              3330.1848              3377.0982
 Red. masses --     1.0989                 1.1033                 1.0669
 Frc consts  --     7.1658                 7.2089                 7.1689
 IR Inten    --    60.3940                55.1829                29.1349
 Raman Activ --    52.0434                27.7464               120.0363

                   124                    125                    126
                     A                      A                      A
 Frequencies --  3389.8837              3391.2314              3392.2446
 Red. masses --     1.0687                 1.0667                 1.0678
 Frc consts  --     7.2358                 7.2276                 7.2394
 IR Inten    --    41.2171                46.9193                77.2487
 Raman Activ --   197.7531               153.8350               147.6567

                   127                    128                    129
                     A                      A                      A
 Frequencies --  3401.5140              3904.7122              3920.0708
 Red. masses --     1.0666                 1.0672                 1.0669
 Frc consts  --     7.2712                 9.5869                 9.6599
 IR Inten    --    54.0685                33.6075                71.5574
 Raman Activ --    80.4529               110.6571               119.6215

 - Thermochemistry -
 -------------------
 Temperature   298.150 Kelvin.  Pressure   1.00000 Atm.
 Atom     1 has atomic number  8 and mass  15.99491

 Molecular mass:   342.11621 amu.
 Principal axes and moments of inertia in atomic units:
                           1         2         3
     Eigenvalues --  4606.79605********************
           X            0.99998  -0.00677  -0.00031
           Y            0.00677   0.99997  -0.00330
           Z            0.00033   0.00330   0.99999
 This molecule is an asymmetric top.
 Rotational symmetry number  1.
 Warning -- assumption of classical behavior for rotation
           may cause significant error
 Rotational temperatures (Kelvin)      0.01880     0.00711     0.00530
 Rotational constants (GHZ):           0.39176     0.14806     0.11050
    8 imaginary frequencies ignored.
 Zero-point vibrational energy     975633.1 (Joules/Mol)
                                  233.18191 (Kcal/Mol)
 Warning -- explicit consideration of  32 degrees of freedom as
           vibrations may cause significant error
 Vibrational temperatures:     18.75    82.60   113.81   134.05   169.13
          (Kelvin)            242.75   266.36   294.89   307.82   330.87
                              382.70   400.57   437.76   462.45   476.52
                              503.65   518.33   553.27   562.19   598.46
                              611.05   627.85   647.13   695.72   723.90
                              750.71   794.15   821.42   827.29   840.63
                              847.36   879.30   900.39   932.33   955.08
                              978.84   984.63   997.45  1198.63  1205.83
                             1240.19  1365.45  1373.06  1408.23  1414.19
                             1426.49  1443.00  1457.66  1464.44  1478.11
                             1509.64  1536.19  1550.73  1556.20  1571.33
                             1577.05  1586.95  1606.60  1619.80  1642.54
                             1654.60  1656.07  1665.98  1675.72  1693.60
                             1716.98  1720.41  1731.88  1759.43  1779.64
                             1798.49  1808.42  1816.24  1820.52  1838.70
                             1856.97  1866.63  1871.69  1880.69  1904.16
                             1906.65  1920.18  1922.30  1943.11  1963.23
                             1978.02  1986.08  1997.79  2001.34  2019.92
                             2030.69  2038.37  2063.53  2082.77  2089.99
                             2122.20  2125.88  2165.94  2188.40  4688.75
                             4695.62  4705.39  4706.58  4719.91  4731.20
                             4732.54  4739.82  4744.46  4747.84  4754.05
                             4757.31  4765.92  4786.45  4791.39  4858.88
                             4877.28  4879.22  4880.68  4894.01  5618.00
                             5640.10

 Zero-point correction=                           0.371599 (Hartree/Particle)
 Thermal correction to Energy=                    0.389471
 Thermal correction to Enthalpy=                  0.390415
 Thermal correction to Gibbs Free Energy=         0.325389
 Sum of electronic and zero-point Energies=          -1297.522243
 Sum of electronic and thermal Energies=             -1297.504371
 Sum of electronic and thermal Enthalpies=           -1297.503427
 Sum of electronic and thermal Free Energies=        -1297.568453

                     E (Thermal)             CV                S
                      KCal/Mol        Cal/Mol-Kelvin    Cal/Mol-Kelvin
 Total                  244.397             74.389            136.859
 Electronic               0.000              0.000              0.000
 Translational            0.889              2.981             43.384
 Rotational               0.889              2.981             35.171
 Vibrational            242.619             68.427             58.303
 Vibration     1          0.593              1.987              7.485
 Vibration     2          0.596              1.975              4.544
 Vibration     3          0.600              1.963              3.913
 Vibration     4          0.602              1.954              3.592
 Vibration     5          0.608              1.935              3.140
 Vibration     6          0.625              1.881              2.450
 Vibration     7          0.631              1.860              2.276
 Vibration     8          0.640              1.833              2.088
 Vibration     9          0.644              1.820              2.010
 Vibration    10          0.652              1.795              1.879
 Vibration    11          0.672              1.735              1.622
 Vibration    12          0.679              1.713              1.543
 Vibration    13          0.695              1.666              1.393
 Vibration    14          0.707              1.633              1.303
 Vibration    15          0.714              1.613              1.254
 Vibration    16          0.727              1.575              1.166
 Vibration    17          0.735              1.554              1.121
 Vibration    18          0.753              1.503              1.021
 Vibration    19          0.758              1.490              0.997
 Vibration    20          0.779              1.436              0.906
 Vibration    21          0.787              1.417              0.876
 Vibration    22          0.797              1.391              0.838
 Vibration    23          0.809              1.361              0.796
 Vibration    24          0.840              1.287              0.701
 Vibration    25          0.858              1.243              0.650
 Vibration    26          0.877              1.202              0.606
 Vibration    27          0.907              1.135              0.540
 Vibration    28          0.927              1.094              0.502
 Vibration    29          0.931              1.085              0.495
 Vibration    30          0.941              1.065              0.478
 Vibration    31          0.946              1.055              0.469
 Vibration    32          0.970              1.008              0.431

 Normal termination of Gaussian 09 at Tue Mar  1 16:25:39 2016.
