 Gaussian 09, Revision B.01,
 Gaussian 09:  EM64L-G09RevB.01 12-Aug-2010

 --------------------------------------------------
 # freq=raman b3lyp/6-31+g(2df,p) geom=connectivity
 --------------------------------------------------

 ------------
 550 9000.com
 ------------
 Symbolic Z-matrix:
 Charge =  0 Multiplicity = 1

                         Standard orientation:
 ---------------------------------------------------------------------
 Center     Atomic      Atomic             Coordinates (Angstroms)
 Number     Number       Type             X           Y           Z
 ---------------------------------------------------------------------
      1          8           0        4.875653   -0.532810   -0.631587
      2          6           0        3.654982   -0.208117    0.048630
      3          6           0        3.154812    1.178307   -0.323235
      4          8           0        4.183307    2.133134   -0.023589
      5          1           0        5.062467    1.734606   -0.284015
      6          6           0        1.843317    1.549507    0.351235
      7          8           0        1.273344    2.795821   -0.073430
      8          1           0        2.117886    3.331110   -0.042726
      9          6           0        2.740674   -2.644468   -0.437978
     10          8           0        3.511646   -3.144807    0.663823
     11          1           0        4.487411   -2.983042    0.518248
     12          6           0        2.534374   -1.138827   -0.387140
     13          8           0        1.485755   -0.902227    0.563591
     14          6           0        0.950021    0.345384    0.101617
     15          8           0       -0.265225    0.376204    0.865869
     16          6           0       -1.402715    0.223915    0.004102
     17          6           0       -1.938471   -1.179096    0.237365
     18          8           0       -1.012319   -2.219002   -0.110428
     19          1           0       -0.187746   -2.242242    0.453585
     20          6           0       -3.326111   -1.441645   -0.324988
     21          8           0       -3.870773   -2.747804   -0.092885
     22          1           0       -3.292138   -3.510447   -0.383128
     23          6           0       -1.900023    2.685071    0.467770
     24          8           0       -1.558163    3.499411   -0.663477
     25          1           0       -0.563817    3.467269   -0.563818
     26          6           0       -2.439012    1.265689    0.391512
     27          8           0       -3.711064    0.967875   -0.201855
     28          6           0       -4.233803   -0.320506    0.154072
     29          8           0       -5.486961   -0.445800   -0.535442
     30          1           0        5.621533   -0.201434   -0.126163
     31          1           0        1.783482   -3.122646   -0.432583
     32          1           0        3.243713   -2.891609   -1.349445
     33          1           0        2.193651   -0.819015   -1.349703
     34          1           0        3.795708   -0.275024    1.107223
     35          1           0        2.992440    1.193670   -1.380732
     36          1           0        2.021754    1.614733    1.404233
     37          1           0        0.719386    0.275638   -0.940900
     38          1           0       -6.173137    0.003209   -0.036290
     39          1           0       -4.381843   -0.384839    1.211827
     40          1           0       -3.246529   -1.335778   -1.386760
     41          1           0       -2.053022   -1.254902    1.298511
     42          1           0       -1.113951    0.347348   -1.018776
     43          1           0       -2.618100    1.045111    1.423100
     44          1           0       -1.017266    2.632681    1.070179
     45          1           0       -2.621754    3.244356    1.025628
 ---------------------------------------------------------------------

 SCF Done:  E(RB3LYP) =  -1298.00189578     A.U. after   13 cycles

 The electronic state is 1-A.
 Alpha  occ. eigenvalues --  -19.20661 -19.20447 -19.19464 -19.19432 -19.17878
 Alpha  occ. eigenvalues --  -19.16839 -19.16168 -19.15606 -19.15441 -19.14971
 Alpha  occ. eigenvalues --  -19.14097 -10.31553 -10.29370 -10.27736 -10.27729
 Alpha  occ. eigenvalues --  -10.27433 -10.26464 -10.25157 -10.24622 -10.24303
 Alpha  occ. eigenvalues --  -10.24091 -10.24016 -10.22517  -1.11474  -1.08814
 Alpha  occ. eigenvalues --   -1.07470  -1.07052  -1.05190  -1.04775  -1.03031
 Alpha  occ. eigenvalues --   -1.02394  -1.01217  -1.00683  -1.00171  -0.83612
 Alpha  occ. eigenvalues --   -0.81924  -0.78845  -0.77908  -0.73044  -0.70350
 Alpha  occ. eigenvalues --   -0.68178  -0.65420  -0.64633  -0.63134  -0.61643
 Alpha  occ. eigenvalues --   -0.59954  -0.58211  -0.57064  -0.55951  -0.54393
 Alpha  occ. eigenvalues --   -0.53849  -0.53242  -0.53221  -0.52529  -0.51828
 Alpha  occ. eigenvalues --   -0.51107  -0.50283  -0.49102  -0.48358  -0.47693
 Alpha  occ. eigenvalues --   -0.46825  -0.45745  -0.45410  -0.44798  -0.43279
 Alpha  occ. eigenvalues --   -0.42910  -0.42868  -0.41718  -0.41143  -0.40193
 Alpha  occ. eigenvalues --   -0.39767  -0.39391  -0.37696  -0.36894  -0.36245
 Alpha  occ. eigenvalues --   -0.35683  -0.35388  -0.34956  -0.34667  -0.33596
 Alpha  occ. eigenvalues --   -0.33119  -0.32603  -0.32260  -0.31194  -0.30769
 Alpha  occ. eigenvalues --   -0.30589  -0.29131  -0.28484  -0.27793  -0.27357
 Alpha  occ. eigenvalues --   -0.26166
 Alpha virt. eigenvalues --   -0.05014  -0.01763  -0.00975  -0.00101   0.00387
 Alpha virt. eigenvalues --    0.00586   0.02019   0.02124   0.02666   0.03040
 Alpha virt. eigenvalues --    0.03799   0.04372   0.04659   0.04945   0.05504

 Mulliken atomic charges:
              1
     1  O   -0.479558
     2  C   -0.243062
     3  C    0.074319
     4  O   -0.489710
     5  H    0.325232
     6  C   -0.295907
     7  O   -0.484597
     8  H    0.380425
     9  C   -0.522295
    10  O   -0.423374
    11  H    0.343519
    12  C    0.439964
    13  O   -0.102290
    14  C    0.083811
    15  O   -0.031713
    16  C    0.460470
    17  C   -0.119694
    18  O   -0.497946
    19  H    0.371546
    20  C   -0.257528
    21  O   -0.441327
    22  H    0.360160
    23  C   -0.646683
    24  O   -0.415073
    25  H    0.373004
    26  C   -0.021101
    27  O   -0.105767
    28  C    0.211776
    29  O   -0.439007
    30  H    0.338864
    31  H    0.161895
    32  H    0.151623
    33  H    0.108542
    34  H    0.155739
    35  H    0.137706
    36  H    0.148396
    37  H    0.125482
    38  H    0.334399
    39  H    0.129098
    40  H    0.132854
    41  H    0.121936
    42  H    0.114135
    43  H    0.111681
    44  H    0.179188
    45  H    0.140868
 Sum of Mulliken atomic charges =   0.00000

 Dipole moment (field-independent basis, Debye):
    X=              8.0222    Y=              0.2811    Z=              1.2719  Tot=              8.1272
 Quadrupole moment (field-independent basis, Debye-Ang):
   XX=           -120.2876   YY=           -153.5461   ZZ=           -140.7915
   XY=              2.2468   XZ=            -12.8427   YZ=              9.6917

  Exact polarizability: 229.044   1.634 196.083  -1.188   1.736 143.867
 Approx polarizability: 275.164   1.160 257.280  -0.045  -1.201 241.774

 ******    5 imaginary frequencies (negative Signs) ******

                     1                      2                      3
                     A                      A                      A
 Frequencies --  -189.3299              -137.0140               -85.8190
 Red. masses --     1.7724                 1.1059                 2.2784
 Frc consts  --     0.0374                 0.0122                 0.0099
 IR Inten    --     2.9401                96.1986                 4.1339
 Raman Activ --     0.2005                 1.4634                 0.1296

                     4                      5                      6
                     A                      A                      A
 Frequencies --   -66.5185               -41.4790                27.0498
 Red. masses --     6.0493                 5.2373                 3.7579
 Frc consts  --     0.0158                 0.0053                 0.0016
 IR Inten    --     0.5091                 1.2013                10.5588
 Raman Activ --     0.1370                 0.0603                 0.2000

                     7                      8                      9
                     A                      A                      A
 Frequencies --    49.0922                63.1106                75.7200
 Red. masses --     5.9828                 6.4580                 4.1245
 Frc consts  --     0.0085                 0.0152                 0.0139
 IR Inten    --     3.6158                 3.5625                19.2319
 Raman Activ --     0.1401                 0.0947                 0.0453

                    10                     11                     12
                     A                      A                      A
 Frequencies --    91.9698               117.0436               126.9865
 Red. masses --     5.1625                 3.7627                 5.5068
 Frc consts  --     0.0257                 0.0304                 0.0523
 IR Inten    --     9.6310                40.0850                13.3974
 Raman Activ --     0.0654                 0.5563                 0.1819

                    13                     14                     15
                     A                      A                      A
 Frequencies --   144.7376               163.2612               182.0341
 Red. masses --     4.0337                 5.2395                 6.3699
 Frc consts  --     0.0498                 0.0823                 0.1244
 IR Inten    --     3.3283                 2.7045                 1.8388
 Raman Activ --     0.6159                 0.3855                 0.3223

                    16                     17                     18
                     A                      A                      A
 Frequencies --   197.9277               225.6745               238.5978
 Red. masses --     3.8738                 5.1164                 6.0269
 Frc consts  --     0.0894                 0.1535                 0.2022
 IR Inten    --     7.3023                 1.4796                 1.2788
 Raman Activ --     0.1766                 1.1010                 3.0698

                    19                     20                     21
                     A                      A                      A
 Frequencies --   260.2643               279.4578               293.1708
 Red. masses --     5.8180                 5.0992                 5.5053
 Frc consts  --     0.2322                 0.2346                 0.2788
 IR Inten    --     7.2399                 0.1976                 5.2876
 Raman Activ --     1.0109                 1.6198                 0.2257

                    22                     23                     24
                     A                      A                      A
 Frequencies --   302.3159               316.9417               332.2983
 Red. masses --     5.9187                 4.8414                 3.8844
 Frc consts  --     0.3187                 0.2865                 0.2527
 IR Inten    --     0.1630                 2.4358                25.9008
 Raman Activ --     0.9168                 2.1422                 0.6889

                    25                     26                     27
                     A                      A                      A
 Frequencies --   356.3044               377.2011               379.1666
 Red. masses --     3.0929                 3.8241                 5.0138
 Frc consts  --     0.2313                 0.3206                 0.4247
 IR Inten    --    13.6746                15.5136                 2.8464
 Raman Activ --     0.5226                 1.3994                 1.1684

                    28                     29                     30
                     A                      A                      A
 Frequencies --   405.3583               422.8492               457.7380
 Red. masses --     6.3253                 6.2855                 6.7894
 Frc consts  --     0.6124                 0.6622                 0.8381
 IR Inten    --     2.0808                 1.0009                10.1282
 Raman Activ --     2.5277                 3.2883                 0.9745

                    31                     32                     33
                     A                      A                      A
 Frequencies --   481.1469               490.4160               512.7853
 Red. masses --     5.5561                 3.6942                 5.7544
 Frc consts  --     0.7578                 0.5235                 0.8915
 IR Inten    --     0.8711                19.7233                 7.8868
 Raman Activ --     8.4264                 1.5283                 3.0364

                    34                     35                     36
                     A                      A                      A
 Frequencies --   522.1226               540.7877               568.0434
 Red. masses --     4.6034                 4.0067                 4.2928
 Frc consts  --     0.7394                 0.6904                 0.8161
 IR Inten    --     5.4692                46.1089                 6.4776
 Raman Activ --     4.2576                 1.1699                 1.8056

                    37                     38                     39
                     A                      A                      A
 Frequencies --   578.3658               602.7118               660.2845
 Red. masses --     3.7358                 3.3697                 3.5444
 Frc consts  --     0.7363                 0.7212                 0.9104
 IR Inten    --    44.0258                14.3773                27.6332
 Raman Activ --     0.6982                 0.5099                 0.5315

                    40                     41                     42
                     A                      A                      A
 Frequencies --   662.9539               685.4948               707.5478
 Red. masses --     1.1927                 2.3551                 1.4004
 Frc consts  --     0.3088                 0.6520                 0.4130
 IR Inten    --    92.8737                23.0952               118.3105
 Raman Activ --     1.5032                 0.4529                 5.8591

                    43                     44                     45
                     A                      A                      A
 Frequencies --   717.3225               722.3258               737.1698
 Red. masses --     1.8146                 1.1705                 1.1217
 Frc consts  --     0.5501                 0.3598                 0.3591
 IR Inten    --    52.3025                68.1494               166.9473
 Raman Activ --     1.5023                 1.5635                 1.2734

                    46                     47                     48
                     A                      A                      A
 Frequencies --   751.8801               792.7412               825.6560
 Red. masses --     1.1315                 1.3740                 2.0877
 Frc consts  --     0.3769                 0.5087                 0.8385
 IR Inten    --    56.1764                70.6915                18.2562
 Raman Activ --     1.0807                 0.5838                 2.3847

                    49                     50                     51
                     A                      A                      A
 Frequencies --   874.7653               879.3063               909.0063
 Red. masses --     2.8690                 2.9488                 3.2634
 Frc consts  --     1.2935                 1.3433                 1.5887
 IR Inten    --    16.1245                 5.3737                41.9762
 Raman Activ --     3.2753                 3.5707                 1.7754

                    52                     53                     54
                     A                      A                      A
 Frequencies --   950.3286               957.9362               990.6956
 Red. masses --     8.0363                 6.1267                 7.4525
 Frc consts  --     4.2762                 3.3125                 4.3095
 IR Inten    --   343.6411                19.2900               300.9359
 Raman Activ --     2.2534                 2.2544                 0.8389

                    55                     56                     57
                     A                      A                      A
 Frequencies --   995.3623               997.1900              1019.2668
 Red. masses --     4.5640                 4.5821                 5.1868
 Frc consts  --     2.6642                 2.6846                 3.1749
 IR Inten    --    30.6341                68.7485               376.8874
 Raman Activ --     2.7046                 3.5710                 4.4203

                    58                     59                     60
                     A                      A                      A
 Frequencies --  1030.9682              1038.3125              1048.4633
 Red. masses --     4.9944                 3.4139                 4.8857
 Frc consts  --     3.1277                 2.1685                 3.1643
 IR Inten    --    53.0261               121.6426                32.5766
 Raman Activ --     2.4014                 7.3208                 1.9923

                    61                     62                     63
                     A                      A                      A
 Frequencies --  1071.0492              1075.2492              1088.9436
 Red. masses --     2.8391                 2.9162                 3.4554
 Frc consts  --     1.9189                 1.9865                 2.4141
 IR Inten    --    21.6824                28.4969                35.7633
 Raman Activ --     1.6368                12.4640                 3.0733

                    64                     65                     66
                     A                      A                      A
 Frequencies --  1093.3383              1095.1956              1101.3566
 Red. masses --     4.2392                 3.3837                 2.5305
 Frc consts  --     2.9857                 2.3913                 1.8085
 IR Inten    --   190.2279                10.2181                54.6502
 Raman Activ --     3.1520                11.0046                 8.4546

                    67                     68                     69
                     A                      A                      A
 Frequencies --  1120.0273              1129.1579              1134.4534
 Red. masses --     2.6555                 1.9118                 2.7250
 Frc consts  --     1.9627                 1.4362                 2.0663
 IR Inten    --    25.8617                15.2337                50.9290
 Raman Activ --     4.7188                 0.8370                 2.2462

                    70                     71                     72
                     A                      A                      A
 Frequencies --  1139.0007              1149.5723              1158.8066
 Red. masses --     2.6876                 1.8962                 2.5118
 Frc consts  --     2.0543                 1.4764                 1.9872
 IR Inten    --    17.1746                14.8069                 9.9261
 Raman Activ --     5.7185                 1.1016                 3.1416

                    73                     74                     75
                     A                      A                      A
 Frequencies --  1170.8262              1174.3887              1203.6983
 Red. masses --     2.1418                 2.0716                 1.8779
 Frc consts  --     1.7299                 1.6834                 1.6031
 IR Inten    --    66.6344                 9.4167                 4.9895
 Raman Activ --     1.5842                 2.7865                 1.9711

                    76                     77                     78
                     A                      A                      A
 Frequencies --  1209.2070              1214.4663              1220.3751
 Red. masses --     1.6818                 1.7087                 1.3605
 Frc consts  --     1.4489                 1.4848                 1.1938
 IR Inten    --    10.2113                 9.9220                 3.7028
 Raman Activ --     2.6318                 1.7557                 2.9423

                    79                     80                     81
                     A                      A                      A
 Frequencies --  1240.5056              1251.7536              1263.9046
 Red. masses --     1.3265                 1.1665                 1.3466
 Frc consts  --     1.2027                 1.0769                 1.2674
 IR Inten    --     8.4462                34.3003                 2.2091
 Raman Activ --     1.2415                 3.7349                 1.7436

                    82                     83                     84
                     A                      A                      A
 Frequencies --  1274.8823              1278.0590              1288.5401
 Red. masses --     1.2985                 1.2382                 1.2191
 Frc consts  --     1.2435                 1.1916                 1.1926
 IR Inten    --    25.9806                10.9174                12.2540
 Raman Activ --     2.9604                 2.7725                 0.4778

                    85                     86                     87
                     A                      A                      A
 Frequencies --  1304.8721              1317.8736              1329.7626
 Red. masses --     1.2372                 1.2128                 1.2387
 Frc consts  --     1.2411                 1.2410                 1.2905
 IR Inten    --     8.2187                 1.3445                25.4767
 Raman Activ --     0.6171                 7.6585                 2.4628

                    88                     89                     90
                     A                      A                      A
 Frequencies --  1337.3861              1340.2273              1350.4303
 Red. masses --     1.2920                 1.3699                 1.3561
 Frc consts  --     1.3615                 1.4497                 1.4571
 IR Inten    --    27.0252                 5.6375                22.7783
 Raman Activ --     4.5786                 2.9697                 3.6413

                    91                     92                     93
                     A                      A                      A
 Frequencies --  1351.5309              1353.3257              1353.6435
 Red. masses --     1.1826                 1.2494                 1.3385
 Frc consts  --     1.2728                 1.3482                 1.4450
 IR Inten    --    30.5018                11.3539                22.1454
 Raman Activ --     5.9663                 2.8416                 6.4647

                    94                     95                     96
                     A                      A                      A
 Frequencies --  1361.7467              1383.4225              1387.2166
 Red. masses --     1.2531                 1.3651                 1.3050
 Frc consts  --     1.3691                 1.5393                 1.4796
 IR Inten    --    10.9766                 3.2330                 5.0775
 Raman Activ --     1.1223                 2.5354                12.5792

                    97                     98                     99
                     A                      A                      A
 Frequencies --  1400.4763              1404.1906              1412.3055
 Red. masses --     1.3069                 1.4273                 1.6291
 Frc consts  --     1.5103                 1.6581                 1.9145
 IR Inten    --     7.5492                16.6628                11.7131
 Raman Activ --     2.3592                 1.4026                 2.9805

                   100                    101                    102
                     A                      A                      A
 Frequencies --  1419.5207              1423.1553              1425.2323
 Red. masses --     1.2493                 1.2611                 1.3826
 Frc consts  --     1.4832                 1.5049                 1.6547
 IR Inten    --    30.1549                40.1959                44.9320
 Raman Activ --     2.8056                 7.2454                 6.5984

                   103                    104                    105
                     A                      A                      A
 Frequencies --  1428.8386              1447.8341              1449.7240
 Red. masses --     1.3016                 1.1277                 1.0951
 Frc consts  --     1.5657                 1.3928                 1.3560
 IR Inten    --    27.3396                 0.4372                 6.9280
 Raman Activ --     2.2259                 4.4426                 3.8380

                   106                    107                    108
                     A                      A                      A
 Frequencies --  1507.9842              1544.5470              3243.6007
 Red. masses --     1.2821                 1.1199                 1.0774
 Frc consts  --     1.7177                 1.5741                 6.6786
 IR Inten    --    32.1831                89.5570                 8.8533
 Raman Activ --     1.3832                 1.9270                15.7788

                   109                    110                    111
                     A                      A                      A
 Frequencies --  3255.4946              3257.5910              3265.8118
 Red. masses --     1.0808                 1.0783                 1.0771
 Frc consts  --     6.7491                 6.7418                 6.7687
 IR Inten    --     5.2145                 0.5975                 5.5770
 Raman Activ --    30.1763                70.6660                45.8296

                   112                    113                    114
                     A                      A                      A
 Frequencies --  3269.3620              3270.2011              3270.8533
 Red. masses --     1.0680                 1.0721                 1.0822
 Frc consts  --     6.7256                 6.7552                 6.8215
 IR Inten    --    62.6966                 4.6094                 0.9761
 Raman Activ --   164.8976                21.8948                93.6852

                   115                    116                    117
                     A                      A                      A
 Frequencies --  3275.9239              3283.2378              3288.9792
 Red. masses --     1.0775                 1.0844                 1.0858
 Frc consts  --     6.8131                 6.8870                 6.9206
 IR Inten    --    17.6655                 7.2880                28.3942
 Raman Activ --   189.3191                75.3732                 7.4992

                   118                    119                    120
                     A                      A                      A
 Frequencies --  3292.9936              3302.9911              3312.4625
 Red. masses --     1.0851                 1.0866                 1.0952
 Frc consts  --     6.9329                 6.9845                 7.0800
 IR Inten    --    70.4974                54.6046                84.1091
 Raman Activ --    18.2551                 9.1665                46.3745

                   121                    122                    123
                     A                      A                      A
 Frequencies --  3332.9773              3343.3495              3353.2943
 Red. masses --     1.1011                 1.0738                 1.0653
 Frc consts  --     7.2066                 7.0721                 7.0575
 IR Inten    --    35.8854               134.2893                44.6001
 Raman Activ --    83.5577                99.5485               131.1441

                   124                    125                    126
                     A                      A                      A
 Frequencies --  3354.0736              3356.8132              3361.8104
 Red. masses --     1.0670                 1.0650                 1.0672
 Frc consts  --     7.0724                 7.0703                 7.1065
 IR Inten    --   191.6576                36.0020                63.1962
 Raman Activ --   128.1934                41.9951               105.7306

                   127                    128                    129
                     A                      A                      A
 Frequencies --  3364.6035              3861.8762              3874.3823
 Red. masses --     1.0726                 1.0672                 1.0670
 Frc consts  --     7.1541                 9.3778                 9.4365
 IR Inten    --    28.2934                45.9505                60.1951
 Raman Activ --    52.9273               114.8629               140.7587

 - Thermochemistry -
 -------------------
 Temperature   298.150 Kelvin.  Pressure   1.00000 Atm.
 Atom     1 has atomic number  8 and mass  15.99491

 Molecular mass:   342.11621 amu.
 Principal axes and moments of inertia in atomic units:
                           1         2         3
     Eigenvalues --  4506.61951********************
           X            0.99999  -0.00249  -0.00446
           Y            0.00253   0.99996   0.00868
           Z            0.00444  -0.00869   0.99995
 This molecule is an asymmetric top.
 Rotational symmetry number  1.
 Warning -- assumption of classical behavior for rotation
           may cause significant error
 Rotational temperatures (Kelvin)      0.01922     0.00745     0.00556
 Rotational constants (GHZ):           0.40046     0.15532     0.11593
    5 imaginary frequencies ignored.
 Zero-point vibrational energy     975628.3 (Joules/Mol)
                                  233.18076 (Kcal/Mol)
 Warning -- explicit consideration of  33 degrees of freedom as
           vibrations may cause significant error
 Vibrational temperatures:     38.92    70.63    90.80   108.94   132.32
          (Kelvin)            168.40   182.70   208.24   234.90   261.91
                              284.77   324.69   343.29   374.46   402.08
                              421.81   434.96   456.01   478.10   512.64
                              542.71   545.54   583.22   608.38   658.58
                              692.26   705.60   737.78   751.22   778.07
                              817.29   832.14   867.17   950.00   953.84
                              986.27  1018.00  1032.07  1039.26  1060.62
                             1081.79  1140.58  1187.93  1258.59  1265.12
                             1307.86  1367.31  1378.25  1425.39  1432.10
                             1434.73  1466.50  1483.33  1493.90  1508.50
                             1541.00  1547.04  1566.75  1573.07  1575.74
                             1584.60  1611.47  1624.60  1632.22  1638.77
                             1653.98  1667.26  1684.56  1689.68  1731.85
                             1739.78  1747.34  1755.85  1784.81  1800.99
                             1818.47  1834.27  1838.84  1853.92  1877.42
                             1896.12  1913.23  1924.20  1928.29  1942.97
                             1944.55  1947.13  1947.59  1959.25  1990.43
                             1995.89  2014.97  2020.31  2031.99  2042.37
                             2047.60  2050.59  2055.78  2083.11  2085.83
                             2169.65  2222.26  4666.81  4683.92  4686.94
                             4698.77  4703.88  4705.08  4706.02  4713.32
                             4723.84  4732.10  4737.88  4752.26  4765.89
                             4795.41  4810.33  4824.64  4825.76  4829.70
                             4836.89  4840.91  5556.37  5574.37

 Zero-point correction=                           0.371597 (Hartree/Particle)
 Thermal correction to Energy=                    0.391522
 Thermal correction to Enthalpy=                  0.392467
 Thermal correction to Gibbs Free Energy=         0.323264
 Sum of electronic and zero-point Energies=          -1297.630299
 Sum of electronic and thermal Energies=             -1297.610373
 Sum of electronic and thermal Enthalpies=           -1297.609429
 Sum of electronic and thermal Free Energies=        -1297.678632

                     E (Thermal)             CV                S
                      KCal/Mol        Cal/Mol-Kelvin    Cal/Mol-Kelvin
 Total                  245.684             79.762            145.649
 Electronic               0.000              0.000              0.000
 Translational            0.889              2.981             43.384
 Rotational               0.889              2.981             35.054
 Vibrational            243.907             73.800             67.211
 Vibration     1          0.593              1.984              6.035
 Vibration     2          0.595              1.978              4.854
 Vibration     3          0.597              1.972              4.357
 Vibration     4          0.599              1.965              3.999
 Vibration     5          0.602              1.955              3.618
 Vibration     6          0.608              1.935              3.149
 Vibration     7          0.611              1.926              2.991
 Vibration     8          0.616              1.908              2.740
 Vibration     9          0.623              1.888              2.512
 Vibration    10          0.630              1.864              2.307
 Vibration    11          0.637              1.843              2.152
 Vibration    12          0.650              1.802              1.913
 Vibration    13          0.657              1.781              1.813
 Vibration    14          0.668              1.745              1.660
 Vibration    15          0.680              1.712              1.537
 Vibration    16          0.688              1.686              1.456
 Vibration    17          0.694              1.669              1.404
 Vibration    18          0.704              1.641              1.326
 Vibration    19          0.714              1.611              1.249
 Vibration    20          0.732              1.562              1.138
 Vibration    21          0.748              1.519              1.050
 Vibration    22          0.749              1.515              1.042
 Vibration    23          0.770              1.459              0.943
 Vibration    24          0.785              1.421              0.882
 Vibration    25          0.816              1.344              0.773
 Vibration    26          0.837              1.292              0.707
 Vibration    27          0.846              1.271              0.683
 Vibration    28          0.868              1.222              0.627
 Vibration    29          0.877              1.201              0.605
 Vibration    30          0.896              1.160              0.564
 Vibration    31          0.924              1.100              0.508
 Vibration    32          0.935              1.078              0.488
 Vibration    33          0.961              1.026              0.445

 Normal termination of Gaussian 09 at Tue Feb 16 14:42:11 2016.
