 Gaussian 09, Revision B.01,
 Gaussian 09:  EM64L-G09RevB.01 12-Aug-2010

 ------------------------------------------------
 # freq=raman b3lyp/6-31+g(d,p) geom=connectivity
 ------------------------------------------------

 ------------
 500 8000.com
 ------------
 Symbolic Z-matrix:
 Charge =  0 Multiplicity = 1

                         Standard orientation:
 ---------------------------------------------------------------------
 Center     Atomic      Atomic             Coordinates (Angstroms)
 Number     Number       Type             X           Y           Z
 ---------------------------------------------------------------------
      1          8           0        5.101512   -0.545485   -0.303074
      2          6           0        3.874240   -0.030807    0.233280
      3          6           0        3.396548    1.176760   -0.558396
      4          8           0        4.332427    2.257551   -0.435628
      5          1           0        5.236581    1.830772   -0.444143
      6          6           0        2.037194    1.734460   -0.171186
      7          8           0        1.484165    2.879612   -0.835781
      8          1           0        2.110501    3.634034   -0.636069
      9          6           0        3.015145   -2.543801    0.608484
     10          8           0        2.035779   -3.536960    0.272643
     11          1           0        2.415800   -4.458068    0.352333
     12          6           0        2.797473   -1.103174    0.174800
     13          8           0        1.545940   -0.579334    0.639626
     14          6           0        1.076133    0.558983   -0.096560
     15          8           0       -0.142848    0.774955    0.628389
     16          6           0       -1.352808    0.376306   -0.032580
     17          6           0       -1.696220   -1.092496    0.147192
     18          8           0       -0.710801   -2.076328   -0.200915
     19          1           0        0.228772   -2.009705    0.133766
     20          6           0       -2.940740   -1.423613   -0.660540
     21          8           0       -3.117088   -2.803683   -0.309289
     22          1           0       -2.153359   -3.072544   -0.313351
     23          6           0       -2.324992    2.555046    0.352537
     24          8           0       -3.235986    3.556294    0.829499
     25          1           0       -2.954814    4.408991    0.389594
     26          6           0       -2.573229    1.068911    0.552063
     27          8           0       -3.861533    0.734490    0.017019
     28          6           0       -4.128563   -0.671928   -0.080126
     29          8           0       -5.334252   -0.978474   -0.794357
     30          1           0       -6.072990   -0.998068   -0.181592
     31          1           0       -4.262883   -1.029776    0.919275
     32          1           0       -2.813077   -1.272269   -1.712061
     33          1           0       -1.935961   -1.236226    1.180036
     34          1           0       -1.280407    0.601005   -1.076213
     35          1           0       -2.592336    0.872356    1.603682
     36          1           0       -2.223941    2.709942   -0.701359
     37          1           0       -1.374980    2.769151    0.795860
     38          1           0        5.731256   -0.678258    0.409241
     39          1           0        3.116578   -2.543910    1.673666
     40          1           0        3.948280   -2.863692    0.193961
     41          1           0        2.640620   -1.208225   -0.878415
     42          1           0        4.029344    0.256191    1.252336
     43          1           0        3.352845    0.894264   -1.589505
     44          1           0        2.159585    2.054837    0.842362
     45          1           0        0.834975    0.250213   -1.092252
 ---------------------------------------------------------------------

 SCF Done:  E(RB3LYP) =  -1297.91522564     A.U. after   13 cycles

 The electronic state is 1-A.
 Alpha  occ. eigenvalues --  -19.21392 -19.20147 -19.19399 -19.19295 -19.19055
 Alpha  occ. eigenvalues --  -19.18499 -19.16455 -19.16369 -19.16081 -19.15020
 Alpha  occ. eigenvalues --  -19.13327 -10.32197 -10.29044 -10.28766 -10.27579
 Alpha  occ. eigenvalues --  -10.27507 -10.27395 -10.26738 -10.25488 -10.24930
 Alpha  occ. eigenvalues --  -10.24274 -10.23402 -10.22209  -1.10836  -1.08584
 Alpha  occ. eigenvalues --   -1.06444  -1.05939  -1.04841  -1.04188  -1.03832
 Alpha  occ. eigenvalues --   -1.03242  -1.01329  -1.00376  -0.98993  -0.83292
 Alpha  occ. eigenvalues --   -0.82803  -0.79644  -0.77233  -0.73572  -0.69217
 Alpha  occ. eigenvalues --   -0.68262  -0.65380  -0.64011  -0.62824  -0.61261
 Alpha  occ. eigenvalues --   -0.60117  -0.58074  -0.56837  -0.55471  -0.55124
 Alpha  occ. eigenvalues --   -0.53972  -0.53689  -0.53034  -0.52344  -0.51453
 Alpha  occ. eigenvalues --   -0.50912  -0.50553  -0.48275  -0.47684  -0.47229
 Alpha  occ. eigenvalues --   -0.46172  -0.45857  -0.44818  -0.44424  -0.44003
 Alpha  occ. eigenvalues --   -0.43323  -0.41855  -0.41197  -0.40611  -0.40208
 Alpha  occ. eigenvalues --   -0.39293  -0.38369  -0.37694  -0.37384  -0.35948
 Alpha  occ. eigenvalues --   -0.35527  -0.35256  -0.34229  -0.33811  -0.33354
 Alpha  occ. eigenvalues --   -0.32307  -0.32011  -0.30769  -0.30653  -0.30370
 Alpha  occ. eigenvalues --   -0.29867  -0.29479  -0.28366  -0.26602  -0.26449
 Alpha  occ. eigenvalues --   -0.25568
 Alpha virt. eigenvalues --   -0.04191  -0.02673  -0.01470  -0.00139   0.00390
 Alpha virt. eigenvalues --    0.00910   0.01435   0.01763   0.02626   0.03052
 Alpha virt. eigenvalues --    0.03427   0.04268   0.04899   0.05313   0.06136

 Mulliken atomic charges:
              1
     1  O   -0.544503
     2  C   -0.304798
     3  C    0.247670
     4  O   -0.533946
     5  H    0.359314
     6  C   -0.054790
     7  O   -0.489742
     8  H    0.373140
     9  C   -0.134713
    10  O   -0.579969
    11  H    0.389474
    12  C    0.339046
    13  O   -0.433872
    14  C    0.229972
    15  O   -0.297098
    16  C   -0.127145
    17  C   -0.141901
    18  O   -0.588516
    19  H    0.448628
    20  C    0.104549
    21  O   -0.508459
    22  H    0.391211
    23  C   -0.190646
    24  O   -0.518741
    25  H    0.337112
    26  C    0.114961
    27  O   -0.295230
    28  C    0.276721
    29  O   -0.510554
    30  H    0.353746
    31  H    0.115409
    32  H    0.143850
    33  H    0.144215
    34  H    0.128267
    35  H    0.138872
    36  H    0.122514
    37  H    0.156482
    38  H    0.368618
    39  H    0.138773
    40  H    0.145844
    41  H    0.126313
    42  H    0.148381
    43  H    0.147782
    44  H    0.143915
    45  H    0.119844
 Sum of Mulliken atomic charges =   0.00000

 Dipole moment (field-independent basis, Debye):
    X=             10.2930    Y=             -0.3409    Z=              2.1121  Tot=             10.5130
 Quadrupole moment (field-independent basis, Debye-Ang):
   XX=           -125.4851   YY=           -134.1790   ZZ=           -142.0963
   XY=            -11.5506   XZ=              3.8484   YZ=             -8.4325

  Exact polarizability: 220.412   0.778 198.623   2.392  -1.248 141.648
 Approx polarizability: 260.970  -0.193 255.761   3.200  -1.008 229.132

 ******    7 imaginary frequencies (negative Signs) ******

                     1                      2                      3
                     A                      A                      A
 Frequencies --  -298.4587              -295.6989              -239.6552
 Red. masses --     1.7082                 1.6913                 1.0873
 Frc consts  --     0.0896                 0.0871                 0.0368
 IR Inten    --     3.3589                 4.5982               106.1667
 Raman Activ --     0.1239                 0.0435                 1.0911

                     4                      5                      6
                     A                      A                      A
 Frequencies --  -144.6137               -84.3516               -59.4834
 Red. masses --     1.2793                 6.1968                 6.9066
 Frc consts  --     0.0158                 0.0260                 0.0144
 IR Inten    --   114.2961                 0.6278                 1.4391
 Raman Activ --     0.7800                 0.0836                 0.0750

                     7                      8                      9
                     A                      A                      A
 Frequencies --   -48.2105                31.7597                61.3938
 Red. masses --     6.4870                 6.7334                 6.4277
 Frc consts  --     0.0089                 0.0040                 0.0143
 IR Inten    --     1.3480                 1.0015                 2.5903
 Raman Activ --     0.0460                 0.0738                 0.0488

                    10                     11                     12
                     A                      A                      A
 Frequencies --    69.3114                81.7577               107.8165
 Red. masses --     7.0057                 6.5745                 6.2532
 Frc consts  --     0.0198                 0.0259                 0.0428
 IR Inten    --     0.9557                 0.4235                 5.4445
 Raman Activ --     0.0269                 0.0968                 0.1899

                    13                     14                     15
                     A                      A                      A
 Frequencies --   125.4308               139.1864               170.8451
 Red. masses --     6.1450                 6.6842                 6.3105
 Frc consts  --     0.0570                 0.0763                 0.1085
 IR Inten    --     2.1173                 0.1638                 0.7076
 Raman Activ --     0.1815                 0.6811                 0.5627

                    16                     17                     18
                     A                      A                      A
 Frequencies --   196.8010               203.7393               245.8782
 Red. masses --     6.3376                 5.6214                 4.6527
 Frc consts  --     0.1446                 0.1375                 0.1657
 IR Inten    --     1.9906                 1.8747                11.7194
 Raman Activ --     1.7603                 0.9760                 0.5465

                    19                     20                     21
                     A                      A                      A
 Frequencies --   259.9146               271.1766               282.8320
 Red. masses --     4.1364                 5.4283                 5.1060
 Frc consts  --     0.1646                 0.2352                 0.2407
 IR Inten    --     6.6384                 8.2472                 0.9313
 Raman Activ --     0.6661                 0.5610                 0.3973

                    22                     23                     24
                     A                      A                      A
 Frequencies --   302.9859               323.7688               329.8634
 Red. masses --     5.6927                 5.3690                 6.3314
 Frc consts  --     0.3079                 0.3316                 0.4059
 IR Inten    --     7.7021                 5.3788                 3.7952
 Raman Activ --     0.6868                 1.8346                 7.5949

                    25                     26                     27
                     A                      A                      A
 Frequencies --   352.7546               359.6579               381.0977
 Red. masses --     4.1745                 6.5370                 4.4029
 Frc consts  --     0.3061                 0.4982                 0.3768
 IR Inten    --     1.9566                 5.9216                10.2078
 Raman Activ --     0.2256                 1.2215                 2.0228

                    28                     29                     30
                     A                      A                      A
 Frequencies --   410.4168               429.2559               434.4879
 Red. masses --     6.5287                 4.3384                 6.4439
 Frc consts  --     0.6479                 0.4710                 0.7167
 IR Inten    --     1.9689                 2.2517                 0.7490
 Raman Activ --     6.5436                 2.6763                 1.4821

                    31                     32                     33
                     A                      A                      A
 Frequencies --   440.0321               461.1404               479.6706
 Red. masses --     4.7977                 4.1791                 3.8610
 Frc consts  --     0.5473                 0.5236                 0.5234
 IR Inten    --    10.9200                 7.6685                 3.1426
 Raman Activ --     0.6701                 0.6783                 0.5344

                    34                     35                     36
                     A                      A                      A
 Frequencies --   522.2086               532.3058               550.6173
 Red. masses --     4.7519                 4.4765                 6.2433
 Frc consts  --     0.7635                 0.7473                 1.1152
 IR Inten    --    15.4937                15.6125                 2.0848
 Raman Activ --     4.3653                 6.3751                 1.2047

                    37                     38                     39
                     A                      A                      A
 Frequencies --   572.4833               596.2154               626.3589
 Red. masses --     3.0594                 3.0112                 2.7275
 Frc consts  --     0.5908                 0.6307                 0.6305
 IR Inten    --    24.1437                31.2342                27.3411
 Raman Activ --     0.0852                 1.4364                 0.2661

                    40                     41                     42
                     A                      A                      A
 Frequencies --   630.2415               639.0941               653.8474
 Red. masses --     1.1704                 3.8683                 4.0608
 Frc consts  --     0.2739                 0.9309                 1.0229
 IR Inten    --    97.1800                64.5086                15.5945
 Raman Activ --     1.7950                 0.3114                 0.1315

                    43                     44                     45
                     A                      A                      A
 Frequencies --   675.2473               711.3847               729.3070
 Red. masses --     1.0838                 1.0920                 1.0697
 Frc consts  --     0.2912                 0.3256                 0.3352
 IR Inten    --   105.9685               125.8514                90.9036
 Raman Activ --     1.8332                 1.9242                 1.9927

                    46                     47                     48
                     A                      A                      A
 Frequencies --   738.9110               834.3189               838.6648
 Red. masses --     1.0698                 1.6106                 1.5131
 Frc consts  --     0.3441                 0.6606                 0.6270
 IR Inten    --    87.1634                31.7523                49.7053
 Raman Activ --     1.5466                 2.6247                 1.6510

                    49                     50                     51
                     A                      A                      A
 Frequencies --   840.8177               948.5232               958.8577
 Red. masses --     2.5380                 5.7383                 6.2545
 Frc consts  --     1.0572                 3.0418                 3.3880
 IR Inten    --     5.5924                 7.2346               287.7495
 Raman Activ --     3.0682                 1.5686                 0.7071

                    52                     53                     54
                     A                      A                      A
 Frequencies --   987.2161               989.8786               991.7436
 Red. masses --     5.5535                 4.2687                 3.8653
 Frc consts  --     3.1889                 2.4644                 2.2399
 IR Inten    --    51.0582                52.4255                42.0851
 Raman Activ --     2.0827                 3.6579                 0.4616

                    55                     56                     57
                     A                      A                      A
 Frequencies --  1004.8922              1013.2946              1036.7173
 Red. masses --     5.0170                 3.5230                 5.0551
 Frc consts  --     2.9849                 2.1313                 3.2011
 IR Inten    --   198.4095               275.0825               210.2558
 Raman Activ --     2.1951                 1.4034                 2.0643

                    58                     59                     60
                     A                      A                      A
 Frequencies --  1044.9905              1048.7644              1060.7739
 Red. masses --     2.4086                 2.8691                 3.4429
 Frc consts  --     1.5497                 1.8593                 2.2825
 IR Inten    --    32.0973               120.3189                31.3777
 Raman Activ --     1.2730                 2.4851                16.5177

                    61                     62                     63
                     A                      A                      A
 Frequencies --  1069.1242              1078.6490              1086.6116
 Red. masses --     5.0549                 3.3065                 3.6976
 Frc consts  --     3.4042                 2.2666                 2.5723
 IR Inten    --   182.1185                88.0070                64.4584
 Raman Activ --     2.2884                 4.3784                 1.9975

                    64                     65                     66
                     A                      A                      A
 Frequencies --  1093.4146              1096.3545              1112.5665
 Red. masses --     4.8171                 3.7754                 3.1212
 Frc consts  --     3.3931                 2.6737                 2.2763
 IR Inten    --    65.6824                48.2318                11.0217
 Raman Activ --     2.7195                13.5588                11.8615

                    67                     68                     69
                     A                      A                      A
 Frequencies --  1125.9504              1135.8467              1138.4555
 Red. masses --     3.4833                 2.0265                 1.8982
 Frc consts  --     2.6018                 1.5404                 1.4495
 IR Inten    --    41.4495                21.7510                35.7129
 Raman Activ --     7.9342                 4.1544                 1.2380

                    70                     71                     72
                     A                      A                      A
 Frequencies --  1151.2175              1153.9647              1166.1421
 Red. masses --     2.6046                 2.1634                 2.2612
 Frc consts  --     2.0338                 1.6973                 1.8117
 IR Inten    --    31.8204                63.3958                 7.6013
 Raman Activ --     3.6534                 3.5438                 2.7179

                    73                     74                     75
                     A                      A                      A
 Frequencies --  1180.5150              1195.4644              1199.6279
 Red. masses --     2.9218                 2.1487                 1.6062
 Frc consts  --     2.3991                 1.8093                 1.3619
 IR Inten    --    20.4029                 3.7039                 7.3014
 Raman Activ --     1.0532                 3.4450                 2.6415

                    76                     77                     78
                     A                      A                      A
 Frequencies --  1206.0262              1211.5453              1233.5021
 Red. masses --     1.4212                 1.6596                 1.4523
 Frc consts  --     1.2179                 1.4352                 1.3019
 IR Inten    --    28.5901                 1.1174                36.4979
 Raman Activ --     3.2582                 0.5660                 1.6669

                    79                     80                     81
                     A                      A                      A
 Frequencies --  1241.1532              1246.3231              1264.3608
 Red. masses --     1.5296                 1.3819                 1.2366
 Frc consts  --     1.3883                 1.2647                 1.1647
 IR Inten    --    24.6056                 4.8358                 5.0009
 Raman Activ --     1.1845                 2.2715                 2.3818

                    82                     83                     84
                     A                      A                      A
 Frequencies --  1272.2268              1277.3500              1290.9453
 Red. masses --     1.3494                 1.1937                 1.1621
 Frc consts  --     1.2868                 1.1475                 1.1411
 IR Inten    --    45.5562                 4.0219                23.5946
 Raman Activ --     2.1477                 3.5020                 7.1373

                    85                     86                     87
                     A                      A                      A
 Frequencies --  1294.6278              1309.1149              1318.3252
 Red. masses --     1.2528                 1.3005                 1.2241
 Frc consts  --     1.2372                 1.3131                 1.2535
 IR Inten    --     1.3439                16.0964                14.7743
 Raman Activ --     1.7680                 2.1486                 5.1940

                    88                     89                     90
                     A                      A                      A
 Frequencies --  1328.3691              1333.2390              1336.0893
 Red. masses --     1.4058                 1.3164                 1.4096
 Frc consts  --     1.4615                 1.3787                 1.4825
 IR Inten    --     6.4748                 4.9309                12.8044
 Raman Activ --     5.5961                 3.5678                 4.3414

                    91                     92                     93
                     A                      A                      A
 Frequencies --  1354.5583              1366.7157              1367.9104
 Red. masses --     1.5870                 1.2013                 1.1706
 Frc consts  --     1.7156                 1.3221                 1.2906
 IR Inten    --     9.3777                41.0445                19.8970
 Raman Activ --     5.8318                 3.0816                 1.6992

                    94                     95                     96
                     A                      A                      A
 Frequencies --  1373.1229              1376.6679              1383.0448
 Red. masses --     1.2503                 1.2860                 1.2440
 Frc consts  --     1.3890                 1.4360                 1.4020
 IR Inten    --    23.8068                 3.8107                36.3466
 Raman Activ --     8.7495                 6.5860                 1.8609

                    97                     98                     99
                     A                      A                      A
 Frequencies --  1393.0526              1399.5098              1402.4741
 Red. masses --     1.2852                 1.2363                 1.2474
 Frc consts  --     1.4694                 1.4266                 1.4456
 IR Inten    --    26.8320                12.5367                 7.2590
 Raman Activ --     5.5302                 5.7487                 6.2941

                   100                    101                    102
                     A                      A                      A
 Frequencies --  1419.8931              1433.8718              1439.0780
 Red. masses --     1.4009                 1.4677                 1.4685
 Frc consts  --     1.6640                 1.7779                 1.7918
 IR Inten    --    20.6842                22.0604                10.8037
 Raman Activ --     5.3422                 1.6080                 0.6010

                   103                    104                    105
                     A                      A                      A
 Frequencies --  1469.1126              1469.7643              1472.0675
 Red. masses --     1.1405                 1.3636                 1.0888
 Frc consts  --     1.4502                 1.7355                 1.3901
 IR Inten    --    20.6168                45.2801                 1.2648
 Raman Activ --     3.7155                 3.5974                 5.9040

                   106                    107                    108
                     A                      A                      A
 Frequencies --  1480.9720              1579.9202              3256.0394
 Red. masses --     1.3215                 1.1921                 1.0776
 Frc consts  --     1.7077                 1.7532                 6.7312
 IR Inten    --     7.6046               156.5034                10.3421
 Raman Activ --     2.3024                 2.6481                89.6039

                   109                    110                    111
                     A                      A                      A
 Frequencies --  3269.0941              3270.8231              3278.5570
 Red. masses --     1.0607                 1.0619                 1.0812
 Frc consts  --     6.6788                 6.6932                 6.8475
 IR Inten    --    28.6975                58.0069                 1.6495
 Raman Activ --    79.2969                57.4010                98.8533

                   112                    113                    114
                     A                      A                      A
 Frequencies --  3280.9786              3284.7789              3287.0653
 Red. masses --     1.0844                 1.0830                 1.0837
 Frc consts  --     6.8780                 6.8847                 6.8986
 IR Inten    --    14.4681                 0.8595                 5.2300
 Raman Activ --     7.9125                17.6131                60.1623

                   115                    116                    117
                     A                      A                      A
 Frequencies --  3291.6067              3297.3443              3302.1855
 Red. masses --     1.0831                 1.0852                 1.0748
 Frc consts  --     6.9144                 6.9516                 6.9051
 IR Inten    --    14.0165                 0.3044               178.8458
 Raman Activ --    93.3423               117.0917                84.7394

                   118                    119                    120
                     A                      A                      A
 Frequencies --  3304.3606              3309.0526              3321.0182
 Red. masses --     1.0786                 1.0870                 1.0861
 Frc consts  --     6.9387                 7.0125                 7.0576
 IR Inten    --   109.9267                76.8412                86.1672
 Raman Activ --    68.2830                 1.9696                15.7086

                   121                    122                    123
                     A                      A                      A
 Frequencies --  3321.7999              3325.8232              3386.4191
 Red. masses --     1.1041                 1.1016                 1.0675
 Frc consts  --     7.1780                 7.1791                 7.2130
 IR Inten    --    33.6763                57.8904               373.7315
 Raman Activ --    58.5699                38.8698               189.9785

                   124                    125                    126
                     A                      A                      A
 Frequencies --  3389.8088              3389.9303              3393.5126
 Red. masses --     1.0656                 1.0669                 1.0663
 Frc consts  --     7.2143                 7.2236                 7.2351
 IR Inten    --    37.6151                31.3491                66.6658
 Raman Activ --    83.2035               132.5793               108.6197

                   127                    128                    129
                     A                      A                      A
 Frequencies --  3402.5817              3917.0547              3917.6117
 Red. masses --     1.0681                 1.0678                 1.0675
 Frc consts  --     7.2860                 9.6525                 9.6527
 IR Inten    --    71.7153                85.9790                63.1634
 Raman Activ --   174.3332                85.7514               146.0939

 - Thermochemistry -
 -------------------
 Temperature   298.150 Kelvin.  Pressure   1.00000 Atm.
 Atom     1 has atomic number  8 and mass  15.99491

 Molecular mass:   342.11621 amu.
 Principal axes and moments of inertia in atomic units:
                           1         2         3
     Eigenvalues --  4817.51088********************
           X            0.99997  -0.00735   0.00027
           Y            0.00735   0.99996  -0.00423
           Z           -0.00024   0.00423   0.99999
 This molecule is an asymmetric top.
 Rotational symmetry number  1.
 Warning -- assumption of classical behavior for rotation
           may cause significant error
 Rotational temperatures (Kelvin)      0.01798     0.00734     0.00543
 Rotational constants (GHZ):           0.37462     0.15302     0.11324
    7 imaginary frequencies ignored.
 Zero-point vibrational energy     976493.3 (Joules/Mol)
                                  233.38750 (Kcal/Mol)
 Warning -- explicit consideration of  31 degrees of freedom as
           vibrations may cause significant error
 Vibrational temperatures:     45.70    88.33    99.72   117.63   155.12
          (Kelvin)            180.47   200.26   245.81   283.15   293.13
                              353.76   373.96   390.16   406.93   435.93
                              465.83   474.60   507.53   517.47   548.31
                              590.50   617.60   625.13   633.11   663.48
                              690.14   751.34   765.87   792.21   823.67
                              857.82   901.19   906.78   919.51   940.74
                              971.53  1023.52  1049.31  1063.13  1200.40
                             1206.65  1209.75  1364.71  1379.58  1420.38
                             1424.21  1426.90  1445.81  1457.90  1491.60
                             1503.51  1508.94  1526.22  1538.23  1551.93
                             1563.39  1573.18  1577.41  1600.73  1619.99
                             1634.23  1637.98  1656.34  1660.30  1677.82
                             1698.50  1720.00  1725.99  1735.20  1743.14
                             1774.73  1785.74  1793.18  1819.13  1830.45
                             1837.82  1857.38  1862.68  1883.52  1896.77
                             1911.22  1918.23  1922.33  1948.90  1966.40
                             1968.12  1975.62  1980.72  1989.89  2004.29
                             2013.58  2017.84  2042.91  2063.02  2070.51
                             2113.72  2114.66  2117.97  2130.79  2273.15
                             4684.71  4703.49  4705.98  4717.11  4720.59
                             4726.06  4729.35  4735.88  4744.14  4751.10
                             4754.23  4760.98  4778.20  4779.32  4785.11
                             4872.30  4877.17  4877.35  4882.50  4895.55
                             5635.76  5636.56

 Zero-point correction=                           0.371927 (Hartree/Particle)
 Thermal correction to Energy=                    0.390694
 Thermal correction to Enthalpy=                  0.391638
 Thermal correction to Gibbs Free Energy=         0.325231
 Sum of electronic and zero-point Energies=          -1297.543299
 Sum of electronic and thermal Energies=             -1297.524531
 Sum of electronic and thermal Enthalpies=           -1297.523587
 Sum of electronic and thermal Free Energies=        -1297.589995

                     E (Thermal)             CV                S
                      KCal/Mol        Cal/Mol-Kelvin    Cal/Mol-Kelvin
 Total                  245.164             76.406            139.767
 Electronic               0.000              0.000              0.000
 Translational            0.889              2.981             43.384
 Rotational               0.889              2.981             35.159
 Vibrational            243.387             70.445             61.224
 Vibration     1          0.594              1.983              5.716
 Vibration     2          0.597              1.973              4.412
 Vibration     3          0.598              1.969              4.173
 Vibration     4          0.600              1.962              3.848
 Vibration     5          0.606              1.943              3.308
 Vibration     6          0.610              1.928              3.015
 Vibration     7          0.615              1.914              2.815
 Vibration     8          0.626              1.878              2.426
 Vibration     9          0.636              1.844              2.163
 Vibration    10          0.639              1.835              2.099
 Vibration    11          0.660              1.770              1.760
 Vibration    12          0.668              1.746              1.662
 Vibration    13          0.675              1.726              1.589
 Vibration    14          0.682              1.705              1.516
 Vibration    15          0.694              1.668              1.400
 Vibration    16          0.708              1.628              1.291
 Vibration    17          0.713              1.616              1.261
 Vibration    18          0.729              1.570              1.154
 Vibration    19          0.734              1.555              1.124
 Vibration    20          0.751              1.510              1.035
 Vibration    21          0.775              1.448              0.925
 Vibration    22          0.791              1.407              0.861
 Vibration    23          0.795              1.395              0.844
 Vibration    24          0.800              1.383              0.827
 Vibration    25          0.819              1.336              0.763
 Vibration    26          0.836              1.295              0.711
 Vibration    27          0.877              1.201              0.605
 Vibration    28          0.887              1.179              0.582
 Vibration    29          0.906              1.138              0.543
 Vibration    30          0.929              1.091              0.499
 Vibration    31          0.954              1.040              0.456

 Normal termination of Gaussian 09 at Tue Mar  1 16:21:15 2016.
