 Gaussian 09, Revision B.01,
 Gaussian 09:  EM64L-G09RevB.01 12-Aug-2010

 --------------------------------------------------
 # freq=raman b3lyp/6-31+g(2df,p) geom=connectivity
 --------------------------------------------------

 ------------
 320 9000.com
 ------------
 Symbolic Z-matrix:
 Charge =  0 Multiplicity = 1

                         Standard orientation:
 ---------------------------------------------------------------------
 Center     Atomic      Atomic             Coordinates (Angstroms)
 Number     Number       Type             X           Y           Z
 ---------------------------------------------------------------------
      1          8           0       -5.051408   -0.546532    0.272241
      2          6           0       -3.721492   -0.129718   -0.071289
      3          6           0       -3.258639    1.266283    0.311288
      4          8           0       -4.147720    2.303021   -0.129138
      5          1           0       -5.110249    2.063689   -0.005222
      6          6           0       -1.863915    1.602703   -0.191298
      7          8           0       -1.308609    2.839301    0.277605
      8          1           0       -0.312169    2.917367    0.229591
      9          6           0       -3.095105   -2.528182   -0.234850
     10          8           0       -4.125286   -3.274233    0.428612
     11          1           0       -3.976602   -4.244510    0.619776
     12          6           0       -2.714047   -1.182894    0.360376
     13          8           0       -1.507419   -0.738534   -0.276804
     14          6           0       -0.882586    0.486679    0.132826
     15          8           0        0.279182    0.556232   -0.707120
     16          6           0        1.546409    0.263127   -0.101481
     17          6           0        2.064160   -1.110943   -0.495848
     18          8           0        1.064067   -2.095013   -0.196143
     19          1           0        0.244256   -1.583240   -0.453058
     20          6           0        3.363191   -1.539499    0.166636
     21          8           0        3.732070   -2.812383   -0.383581
     22          1           0        4.517647   -3.170319    0.121359
     23          6           0        2.336847    2.645158    0.174749
     24          8           0        1.147090    3.314222   -0.268427
     25          1           0        1.273069    4.235444    0.097832
     26          6           0        2.679261    1.251199   -0.326180
     27          8           0        3.798495    0.769879    0.431709
     28          6           0        4.399303   -0.446441   -0.035277
     29          8           0        5.536151   -0.672425    0.810788
     30          1           0        6.299651   -0.887733    0.270132
     31          1           0        4.687578   -0.367311   -1.062670
     32          1           0        3.190600   -1.657431    1.216019
     33          1           0        2.220426   -1.110726   -1.554376
     34          1           0        1.374747    0.234491    0.954271
     35          1           0        2.931143    1.287986   -1.365460
     36          1           0        3.162755    3.278414   -0.073772
     37          1           0       -0.623366    0.470828    1.170830
     38          1           0       -1.924341    1.670630   -1.257429
     39          1           0       -5.529499   -0.781367   -0.526434
     40          1           0       -3.229076    1.306312    1.380130
     41          1           0       -3.699101   -0.140765   -1.140998
     42          1           0       -2.611323   -1.226761    1.424530
     43          1           0       -2.214969   -3.136190   -0.259085
     44          1           0       -3.409888   -2.361989   -1.243905
     45          1           0        2.285505    2.590059    1.242095
 ---------------------------------------------------------------------

 SCF Done:  E(RB3LYP) =  -1298.00765877     A.U. after   14 cycles

 The electronic state is 1-A.
 Alpha  occ. eigenvalues --  -19.20001 -19.18605 -19.18482 -19.18408 -19.17259
 Alpha  occ. eigenvalues --  -19.16417 -19.16158 -19.15504 -19.14815 -19.13890
 Alpha  occ. eigenvalues --  -19.12057 -10.30989 -10.30518 -10.26969 -10.25927
 Alpha  occ. eigenvalues --  -10.25617 -10.25076 -10.24640 -10.24296 -10.24113
 Alpha  occ. eigenvalues --  -10.24004 -10.23938 -10.23757  -1.09809  -1.09170
 Alpha  occ. eigenvalues --   -1.06922  -1.04707  -1.03825  -1.03457  -1.02893
 Alpha  occ. eigenvalues --   -1.01672  -1.01282  -1.00675  -0.98973  -0.82275
 Alpha  occ. eigenvalues --   -0.79906  -0.79380  -0.78254  -0.72222  -0.69937
 Alpha  occ. eigenvalues --   -0.67064  -0.64897  -0.63284  -0.62535  -0.61501
 Alpha  occ. eigenvalues --   -0.60012  -0.56755  -0.56060  -0.55194  -0.54912
 Alpha  occ. eigenvalues --   -0.53835  -0.53453  -0.53029  -0.51769  -0.50892
 Alpha  occ. eigenvalues --   -0.50675  -0.50241  -0.49370  -0.48574  -0.46731
 Alpha  occ. eigenvalues --   -0.46495  -0.45256  -0.44302  -0.43463  -0.43062
 Alpha  occ. eigenvalues --   -0.42619  -0.41360  -0.41061  -0.39967  -0.39671
 Alpha  occ. eigenvalues --   -0.38371  -0.38126  -0.37326  -0.35550  -0.35294
 Alpha  occ. eigenvalues --   -0.34655  -0.34533  -0.33953  -0.33755  -0.33476
 Alpha  occ. eigenvalues --   -0.33044  -0.31921  -0.31670  -0.30518  -0.29348
 Alpha  occ. eigenvalues --   -0.28881  -0.28553  -0.28435  -0.26746  -0.26505
 Alpha  occ. eigenvalues --   -0.25774
 Alpha virt. eigenvalues --   -0.02453  -0.01997  -0.01408  -0.00190   0.00305
 Alpha virt. eigenvalues --    0.01039   0.01922   0.02091   0.02705   0.03349
 Alpha virt. eigenvalues --    0.03838   0.04317   0.04760   0.05267   0.05614

 Mulliken atomic charges:
              1
     1  O   -0.455625
     2  C   -0.229309
     3  C    0.186652
     4  O   -0.470021
     5  H    0.350144
     6  C   -0.169934
     7  O   -0.533145
     8  H    0.456799
     9  C   -0.353891
    10  O   -0.478095
    11  H    0.362072
    12  C    0.063060
    13  O   -0.051313
    14  C    0.116137
    15  O   -0.016390
    16  C    0.140351
    17  C   -0.042723
    18  O   -0.445363
    19  H    0.392930
    20  C   -0.016712
    21  O   -0.453272
    22  H    0.340283
    23  C   -0.357671
    24  O   -0.464777
    25  H    0.365859
    26  C   -0.313831
    27  O   -0.034515
    28  C   -0.014647
    29  O   -0.469868
    30  H    0.347256
    31  H    0.135195
    32  H    0.141334
    33  H    0.125473
    34  H    0.116249
    35  H    0.131266
    36  H    0.152713
    37  H    0.131903
    38  H    0.135883
    39  H    0.355481
    40  H    0.119038
    41  H    0.117620
    42  H    0.123742
    43  H    0.154802
    44  H    0.143473
    45  H    0.165390
 Sum of Mulliken atomic charges =   0.00000

 Dipole moment (field-independent basis, Debye):
    X=              3.9446    Y=             -0.2366    Z=             -0.8177  Tot=              4.0354
 Quadrupole moment (field-independent basis, Debye-Ang):
   XX=           -118.9615   YY=           -135.1069   ZZ=           -139.1419
   XY=             13.6067   XZ=              0.4801   YZ=             -0.1208

  Exact polarizability: 234.334  -0.868 199.020   1.064  -0.113 144.669
 Approx polarizability: 274.409  -0.191 258.056   1.976  -1.711 241.172

 ******    7 imaginary frequencies (negative Signs) ******

                     1                      2                      3
                     A                      A                      A
 Frequencies --  -278.4699              -252.1389              -250.4234
 Red. masses --     1.7600                 1.1956                 1.5867
 Frc consts  --     0.0804                 0.0448                 0.0586
 IR Inten    --     1.2542                92.8126                56.5744
 Raman Activ --     0.0397                 0.9288                 0.3554

                     4                      5                      6
                     A                      A                      A
 Frequencies --  -194.3040               -72.6859               -56.4935
 Red. masses --     1.3653                 7.0420                 6.1606
 Frc consts  --     0.0304                 0.0219                 0.0116
 IR Inten    --    69.3405                 2.9770                 0.3063
 Raman Activ --     0.8670                 0.0453                 0.0465

                     7                      8                      9
                     A                      A                      A
 Frequencies --   -52.7378                41.4065                58.9102
 Red. masses --     6.8986                 6.6223                 6.4196
 Frc consts  --     0.0113                 0.0067                 0.0131
 IR Inten    --     2.5254                 0.3314                 4.8294
 Raman Activ --     0.0879                 0.0215                 0.0595

                    10                     11                     12
                     A                      A                      A
 Frequencies --    70.8886                80.6702               132.8353
 Red. masses --     6.5033                 6.2960                 5.4857
 Frc consts  --     0.0193                 0.0241                 0.0570
 IR Inten    --     1.7813                 0.3021                 0.9910
 Raman Activ --     0.0740                 0.3331                 0.0307

                    13                     14                     15
                     A                      A                      A
 Frequencies --   160.6819               179.4305               187.1810
 Red. masses --     6.2389                 5.7622                 6.9238
 Frc consts  --     0.0949                 0.1093                 0.1429
 IR Inten    --     3.5359                 5.3224                 0.6353
 Raman Activ --     0.6342                 0.5531                 0.5794

                    16                     17                     18
                     A                      A                      A
 Frequencies --   217.8106               231.4423               258.5576
 Red. masses --     7.0176                 5.7538                 4.5092
 Frc consts  --     0.1962                 0.1816                 0.1776
 IR Inten    --     1.0611                 4.5436                26.8941
 Raman Activ --     3.0088                 0.3269                 0.2556

                    19                     20                     21
                     A                      A                      A
 Frequencies --   269.7699               277.2159               293.7091
 Red. masses --     4.4909                 5.0577                 4.5999
 Frc consts  --     0.1926                 0.2290                 0.2338
 IR Inten    --     0.2503                 2.2288                 2.5955
 Raman Activ --     0.2096                 0.2252                 0.1785

                    22                     23                     24
                     A                      A                      A
 Frequencies --   308.3105               310.9581               314.5978
 Red. masses --     5.4237                 6.0739                 5.9079
 Frc consts  --     0.3038                 0.3460                 0.3445
 IR Inten    --     4.8700                 3.3018                 0.5341
 Raman Activ --     1.8212                 4.6947                 1.5819

                    25                     26                     27
                     A                      A                      A
 Frequencies --   354.0625               368.0254               384.5641
 Red. masses --     6.3120                 5.8346                 5.9972
 Frc consts  --     0.4662                 0.4656                 0.5226
 IR Inten    --    11.3202                 3.4617                 3.7372
 Raman Activ --     1.4220                 1.8573                 0.4065

                    28                     29                     30
                     A                      A                      A
 Frequencies --   407.7087               414.5365               429.2349
 Red. masses --     5.7387                 4.4856                 5.3678
 Frc consts  --     0.5620                 0.4541                 0.5827
 IR Inten    --    14.8306                 3.1598                 3.3025
 Raman Activ --     2.7651                 5.9060                 3.5135

                    31                     32                     33
                     A                      A                      A
 Frequencies --   431.7262               465.0154               492.1205
 Red. masses --     4.3664                 4.0056                 4.1306
 Frc consts  --     0.4795                 0.5103                 0.5894
 IR Inten    --     6.8118                 7.5018                10.2614
 Raman Activ --     0.6739                 3.5430                 0.1855

                    34                     35                     36
                     A                      A                      A
 Frequencies --   514.6959               523.3786               561.1726
 Red. masses --     3.8599                 2.9614                 3.7480
 Frc consts  --     0.6025                 0.4779                 0.6954
 IR Inten    --    11.0328                12.2932                25.1342
 Raman Activ --     2.9254                 3.7604                 1.3825

                    37                     38                     39
                     A                      A                      A
 Frequencies --   579.7274               588.8136               598.1255
 Red. masses --     2.9922                 4.7470                 2.5729
 Frc consts  --     0.5925                 0.9697                 0.5423
 IR Inten    --    24.7028                11.8262                34.5601
 Raman Activ --     0.6669                 0.7651                 0.8527

                    40                     41                     42
                     A                      A                      A
 Frequencies --   615.3694               629.4746               678.3549
 Red. masses --     2.8502                 1.9782                 4.0883
 Frc consts  --     0.6359                 0.4618                 1.1084
 IR Inten    --    26.5896                65.3731                12.7395
 Raman Activ --     0.4938                 1.6613                 1.1530

                    43                     44                     45
                     A                      A                      A
 Frequencies --   712.8535               738.5968               744.5343
 Red. masses --     1.0543                 1.0727                 1.0897
 Frc consts  --     0.3156                 0.3448                 0.3559
 IR Inten    --    93.7487                82.4348                 6.5826
 Raman Activ --     2.0597                 1.8739                 0.2922

                    46                     47                     48
                     A                      A                      A
 Frequencies --   793.1529               845.2173               854.0984
 Red. masses --     1.1389                 1.7921                 1.1278
 Frc consts  --     0.4221                 0.7543                 0.4847
 IR Inten    --   165.2939                11.7409                74.6111
 Raman Activ --     1.4567                 0.3584                 2.1689

                    49                     50                     51
                     A                      A                      A
 Frequencies --   874.2000               913.4337               942.9105
 Red. masses --     1.6597                 5.2493                 5.1140
 Frc consts  --     0.7473                 2.5805                 2.6789
 IR Inten    --    42.7140               172.3553                47.7979
 Raman Activ --     1.1956                 2.5736                 0.6971

                    52                     53                     54
                     A                      A                      A
 Frequencies --   970.3268               985.6122               989.5224
 Red. masses --     5.9254                 5.5780                 4.3954
 Frc consts  --     3.2870                 3.1926                 2.5357
 IR Inten    --    44.7038               217.6409                32.9397
 Raman Activ --     2.6405                 3.5413                 0.9118

                    55                     56                     57
                     A                      A                      A
 Frequencies --   997.0507              1012.3793              1025.8480
 Red. masses --     7.0242                 6.3211                 5.8553
 Frc consts  --     4.1142                 3.8170                 3.6305
 IR Inten    --   367.5093                43.0306               121.4221
 Raman Activ --     1.2301                 3.8739                 3.2431

                    58                     59                     60
                     A                      A                      A
 Frequencies --  1037.2647              1048.3393              1062.2432
 Red. masses --     6.0113                 4.9852                 8.0411
 Frc consts  --     3.8106                 3.2280                 5.3458
 IR Inten    --   335.3236                14.8215               253.2378
 Raman Activ --     2.4432                14.7444                 0.6660

                    61                     62                     63
                     A                      A                      A
 Frequencies --  1065.6209              1072.2432              1080.9934
 Red. masses --     2.9632                 5.0923                 3.1798
 Frc consts  --     1.9825                 3.4494                 2.1892
 IR Inten    --    10.9643                29.7570                 2.8499
 Raman Activ --     2.3186                 6.3885                13.5387

                    64                     65                     66
                     A                      A                      A
 Frequencies --  1097.6764              1102.1383              1114.7945
 Red. masses --     3.9551                 2.0565                 2.3981
 Frc consts  --     2.8077                 1.4718                 1.7559
 IR Inten    --    92.9108                83.3757                 0.2114
 Raman Activ --     7.1574                 1.2844                 4.3491

                    67                     68                     69
                     A                      A                      A
 Frequencies --  1116.3527              1123.5087              1126.9694
 Red. masses --     2.5396                 2.7796                 2.1265
 Frc consts  --     1.8647                 2.0672                 1.5913
 IR Inten    --    51.7246                10.8509                27.4580
 Raman Activ --     6.2838                 2.6785                 2.3682

                    70                     71                     72
                     A                      A                      A
 Frequencies --  1131.8242              1144.5841              1148.1154
 Red. masses --     2.8030                 1.6460                 2.1677
 Frc consts  --     2.1156                 1.2705                 1.6835
 IR Inten    --     7.2275                 4.2225                47.9251
 Raman Activ --     4.1224                 4.5110                 8.7208

                    73                     74                     75
                     A                      A                      A
 Frequencies --  1158.6051              1164.2022              1177.1530
 Red. masses --     1.5708                 1.8448                 2.2593
 Frc consts  --     1.2424                 1.4731                 1.8446
 IR Inten    --     6.0250                28.1561                 6.9618
 Raman Activ --     2.8640                 2.4309                 3.6060

                    76                     77                     78
                     A                      A                      A
 Frequencies --  1197.8595              1201.8428              1220.1654
 Red. masses --     1.4568                 1.3476                 1.2438
 Frc consts  --     1.2316                 1.1468                 1.0910
 IR Inten    --     5.1915                17.3490                 2.9907
 Raman Activ --     2.0794                 2.9617                 4.6260

                    79                     80                     81
                     A                      A                      A
 Frequencies --  1229.5157              1235.3223              1242.1892
 Red. masses --     1.2463                 1.2994                 1.3034
 Frc consts  --     1.1100                 1.1683                 1.1850
 IR Inten    --     7.8547                 3.3892                22.0506
 Raman Activ --     0.8305                 3.1968                 0.9344

                    82                     83                     84
                     A                      A                      A
 Frequencies --  1260.8408              1271.2178              1282.0764
 Red. masses --     1.1726                 1.4498                 1.3985
 Frc consts  --     1.0983                 1.3804                 1.3544
 IR Inten    --    20.0570                 7.3272                28.3751
 Raman Activ --     1.6549                 1.6058                 1.3005

                    85                     86                     87
                     A                      A                      A
 Frequencies --  1285.3447              1290.7428              1300.1897
 Red. masses --     1.2589                 1.3361                 1.3699
 Frc consts  --     1.2254                 1.3115                 1.3645
 IR Inten    --     4.4642                 7.0977                49.5539
 Raman Activ --     4.0469                 1.7645                 3.4609

                    88                     89                     90
                     A                      A                      A
 Frequencies --  1306.4496              1316.4254              1320.9977
 Red. masses --     1.2107                 1.2166                 1.2351
 Frc consts  --     1.2175                 1.2422                 1.2698
 IR Inten    --    16.2528                 1.3127                32.6146
 Raman Activ --     5.5956                10.0987                 3.5300

                    91                     92                     93
                     A                      A                      A
 Frequencies --  1323.8179              1326.5849              1332.6363
 Red. masses --     1.4101                 1.1769                 1.2578
 Frc consts  --     1.4560                 1.2203                 1.3161
 IR Inten    --    21.6938                42.5548                 7.7718
 Raman Activ --     5.5701                 2.0206                 3.2761

                    94                     95                     96
                     A                      A                      A
 Frequencies --  1346.9214              1353.5597              1360.7230
 Red. masses --     1.2949                 1.6870                 1.4172
 Frc consts  --     1.3841                 1.8211                 1.5461
 IR Inten    --    16.1837                15.6640                31.5843
 Raman Activ --     1.3457                 6.3985                 4.2758

                    97                     98                     99
                     A                      A                      A
 Frequencies --  1366.6966              1389.3186              1395.3859
 Red. masses --     1.6119                 1.3855                 1.3745
 Frc consts  --     1.7739                 1.5756                 1.5768
 IR Inten    --     9.3189                31.4801                 8.2655
 Raman Activ --     8.5665                 0.7374                 1.4868

                   100                    101                    102
                     A                      A                      A
 Frequencies --  1402.8907              1418.9746              1422.3370
 Red. masses --     1.3104                 1.3032                 1.4223
 Frc consts  --     1.5195                 1.5460                 1.6953
 IR Inten    --     3.0068                 5.8265                27.2637
 Raman Activ --     9.0034                 3.1078                 1.9193

                   103                    104                    105
                     A                      A                      A
 Frequencies --  1456.2071              1458.2167              1470.4854
 Red. masses --     1.3545                 1.0847                 1.0749
 Frc consts  --     1.6923                 1.3589                 1.3695
 IR Inten    --    30.8166                 7.3753                 4.8403
 Raman Activ --     1.0100                 3.4618                 4.7429

                   106                    107                    108
                     A                      A                      A
 Frequencies --  1511.2397              1533.9103              3185.5958
 Red. masses --     1.2547                 1.2440                 1.0710
 Frc consts  --     1.6883                 1.7246                 6.4035
 IR Inten    --    26.5323                69.6079              1321.3005
 Raman Activ --     1.1013                 2.2248               201.7372

                   109                    110                    111
                     A                      A                      A
 Frequencies --  3254.9234              3258.6836              3259.0529
 Red. masses --     1.0694                 1.0607                 1.0661
 Frc consts  --     6.6752                 6.6364                 6.6713
 IR Inten    --    12.2633                 6.0130                20.4311
 Raman Activ --    14.4360               232.3236                83.0812

                   112                    113                    114
                     A                      A                      A
 Frequencies --  3263.3402              3268.4062              3268.7013
 Red. masses --     1.0799                 1.0828                 1.0832
 Frc consts  --     6.7758                 6.8150                 6.8186
 IR Inten    --    22.8196                13.6322                 7.9243
 Raman Activ --   111.8165                 6.3010                 6.5410

                   115                    116                    117
                     A                      A                      A
 Frequencies --  3280.4707              3282.5262              3282.8466
 Red. masses --     1.0853                 1.0845                 1.0846
 Frc consts  --     6.8812                 6.8851                 6.8871
 IR Inten    --    12.9945                12.6458                 5.0260
 Raman Activ --    92.3297               159.9692                12.8205

                   118                    119                    120
                     A                      A                      A
 Frequencies --  3290.0072              3295.0293              3298.6759
 Red. masses --     1.0859                 1.0848                 1.0863
 Frc consts  --     6.9252                 6.9392                 6.9641
 IR Inten    --     8.9550               111.0676                82.1453
 Raman Activ --    25.8413                18.2925                 9.5015

                   121                    122                    123
                     A                      A                      A
 Frequencies --  3308.1956              3311.9289              3314.8384
 Red. masses --     1.0719                 1.1032                 1.1018
 Frc consts  --     6.9114                 7.1294                 7.1333
 IR Inten    --   359.4554                44.0599               101.8285
 Raman Activ --   131.4140                43.2396                40.6118

                   124                    125                    126
                     A                      A                      A
 Frequencies --  3355.1030              3357.1321              3363.1211
 Red. masses --     1.0722                 1.0663                 1.0666
 Frc consts  --     7.1108                 7.0804                 7.1079
 IR Inten    --    50.5449                34.5661                38.5610
 Raman Activ --   167.0389               158.1851               140.6370

                   127                    128                    129
                     A                      A                      A
 Frequencies --  3373.9152              3871.7634              3879.7806
 Red. masses --     1.0656                 1.0678                 1.0674
 Frc consts  --     7.1466                 9.4313                 9.4663
 IR Inten    --    72.8857                74.9747                80.7272
 Raman Activ --   107.6156                76.7696               115.0863

 - Thermochemistry -
 -------------------
 Temperature   298.150 Kelvin.  Pressure   1.00000 Atm.
 Atom     1 has atomic number  8 and mass  15.99491

 Molecular mass:   342.11621 amu.
 Principal axes and moments of inertia in atomic units:
                           1         2         3
     Eigenvalues --  4495.73835********************
           X            0.99997   0.00752   0.00019
           Y           -0.00752   0.99997   0.00254
           Z           -0.00017  -0.00254   1.00000
 This molecule is an asymmetric top.
 Rotational symmetry number  1.
 Warning -- assumption of classical behavior for rotation
           may cause significant error
 Rotational temperatures (Kelvin)      0.01927     0.00700     0.00527
 Rotational constants (GHZ):           0.40143     0.14591     0.10990
    7 imaginary frequencies ignored.
 Zero-point vibrational energy     970518.2 (Joules/Mol)
                                  231.95941 (Kcal/Mol)
 Warning -- explicit consideration of  33 degrees of freedom as
           vibrations may cause significant error
 Vibrational temperatures:     59.57    84.76   101.99   116.07   191.12
          (Kelvin)            231.19   258.16   269.31   313.38   332.99
                              372.01   388.14   398.85   422.58   443.59
                              447.40   452.64   509.42   529.51   553.30
                              586.60   596.42   617.57   621.16   669.05
                              708.05   740.53   753.02   807.40   834.10
                              847.17   860.57   885.38   905.67   976.00
                             1025.64  1062.67  1071.22  1141.17  1216.08
                             1228.86  1257.78  1314.23  1356.64  1396.08
                             1418.07  1423.70  1434.53  1456.59  1475.96
                             1492.39  1508.32  1528.33  1533.19  1542.72
                             1555.31  1579.31  1585.73  1603.94  1606.18
                             1616.48  1621.46  1628.44  1646.80  1651.88
                             1666.97  1675.03  1693.66  1723.45  1729.18
                             1755.54  1769.00  1777.35  1787.23  1814.07
                             1829.00  1844.62  1849.32  1857.09  1870.68
                             1879.69  1894.04  1900.62  1904.68  1908.66
                             1917.36  1937.92  1947.47  1957.77  1966.37
                             1998.92  2007.65  2018.44  2041.59  2046.42
                             2095.15  2098.05  2115.70  2174.33  2206.95
                             4583.36  4683.10  4688.51  4689.04  4695.21
                             4702.50  4702.93  4719.86  4722.82  4723.28
                             4733.58  4740.81  4746.05  4759.75  4765.12
                             4769.31  4827.24  4830.16  4838.78  4854.31
                             5570.60  5582.13

 Zero-point correction=                           0.369651 (Hartree/Particle)
 Thermal correction to Energy=                    0.388106
 Thermal correction to Enthalpy=                  0.389051
 Thermal correction to Gibbs Free Energy=         0.323841
 Sum of electronic and zero-point Energies=          -1297.638008
 Sum of electronic and thermal Energies=             -1297.619552
 Sum of electronic and thermal Enthalpies=           -1297.618608
 Sum of electronic and thermal Free Energies=        -1297.683817

                     E (Thermal)             CV                S
                      KCal/Mol        Cal/Mol-Kelvin    Cal/Mol-Kelvin
 Total                  243.540             76.384            137.244
 Electronic               0.000              0.000              0.000
 Translational            0.889              2.981             43.384
 Rotational               0.889              2.981             35.167
 Vibrational            241.763             70.422             58.693
 Vibration     1          0.594              1.981              5.191
 Vibration     2          0.596              1.974              4.493
 Vibration     3          0.598              1.968              4.129
 Vibration     4          0.600              1.962              3.875
 Vibration     5          0.613              1.921              2.905
 Vibration     6          0.622              1.891              2.542
 Vibration     7          0.629              1.868              2.334
 Vibration     8          0.632              1.857              2.256
 Vibration     9          0.646              1.814              1.977
 Vibration    10          0.653              1.793              1.868
 Vibration    11          0.667              1.748              1.671
 Vibration    12          0.674              1.729              1.598
 Vibration    13          0.678              1.716              1.551
 Vibration    14          0.689              1.685              1.453
 Vibration    15          0.698              1.658              1.371
 Vibration    16          0.700              1.653              1.357
 Vibration    17          0.702              1.646              1.338
 Vibration    18          0.730              1.567              1.148
 Vibration    19          0.741              1.538              1.088
 Vibration    20          0.754              1.503              1.021
 Vibration    21          0.772              1.453              0.935
 Vibration    22          0.778              1.439              0.911
 Vibration    23          0.791              1.407              0.861
 Vibration    24          0.793              1.401              0.853
 Vibration    25          0.822              1.328              0.752
 Vibration    26          0.848              1.268              0.678
 Vibration    27          0.870              1.217              0.622
 Vibration    28          0.878              1.198              0.602
 Vibration    29          0.917              1.115              0.521
 Vibration    30          0.936              1.075              0.486
 Vibration    31          0.946              1.056              0.469
 Vibration    32          0.956              1.036              0.453
 Vibration    33          0.975              0.999              0.424

 Normal termination of Gaussian 09 at Fri Feb 12 10:19:14 2016.
