 Gaussian 09, Revision B.01,
 Gaussian 09:  EM64L-G09RevB.01 12-Aug-2010

 -------------------------------------------------
 # freq=raman b3lyp/6-31+g(2d,p) geom=connectivity
 -------------------------------------------------

 -----------------
 500 5928/5928.com
 -----------------
 Symbolic Z-matrix:
 Charge =  0 Multiplicity = 1

                         Standard orientation:
 ---------------------------------------------------------------------
 Center     Atomic      Atomic             Coordinates (Angstroms)
 Number     Number       Type             X           Y           Z
 ---------------------------------------------------------------------
      1          8           0       -5.077714   -0.503191    0.316328
      2          6           0       -3.823257    0.004973   -0.161073
      3          6           0       -3.431626    1.333005    0.466352
      4          8           0       -4.305184    2.290857   -0.146690
      5          1           0       -5.248289    1.968667   -0.225127
      6          6           0       -1.972766    1.661026    0.193464
      7          8           0       -1.644775    2.875958    0.884072
      8          1           0       -2.368631    3.564816    0.835364
      9          6           0       -3.161921   -2.300600   -0.667138
     10          8           0       -2.578467   -3.541877   -0.243082
     11          1           0       -2.955976   -4.350880   -0.693333
     12          6           0       -2.722827   -1.024478    0.032464
     13          8           0       -1.363020   -0.648138   -0.232698
     14          6           0       -0.969470    0.548968    0.452895
     15          8           0        0.080416    0.808556   -0.490178
     16          6           0        1.338502    0.251953   -0.081908
     17          6           0        1.669670   -1.231770   -0.078140
     18          8           0        0.762110   -2.307032    0.204972
     19          1           0       -0.165251   -1.937504    0.264447
     20          6           0        3.028247   -1.514462    0.543552
     21          8           0        3.358655   -2.897639    0.350506
     22          1           0        2.616754   -3.459299    0.718598
     23          6           0        2.521330    2.479001   -0.286676
     24          8           0        3.463543    3.537397   -0.507085
     25          1           0        3.054185    4.285025    0.015976
     26          6           0        2.442015    1.039713   -0.769039
     27          8           0        3.739035    0.703759   -0.253850
     28          6           0        4.086548   -0.685175   -0.165584
     29          8           0        5.274381   -0.739913    0.638066
     30          1           0        6.036482   -0.517635    0.098257
     31          1           0        4.279604   -1.082818   -1.140011
     32          1           0        3.013285   -1.280215    1.587489
     33          1           0        1.858213   -1.395996   -1.118516
     34          1           0        1.412847    0.526936    0.949478
     35          1           0        2.400080    0.971298   -1.836025
     36          1           0        2.489334    2.388965    0.779049
     37          1           0        1.590398    2.901516   -0.602505
     38          1           0       -5.707150   -0.533506   -0.407890
     39          1           0       -2.954661   -2.185369   -1.710529
     40          1           0       -4.222228   -2.384994   -0.550830
     41          1           0       -2.741216   -1.255671    1.077027
     42          1           0       -3.926092    0.168484   -1.213493
     43          1           0       -3.607395    1.303009    1.521390
     44          1           0       -1.906687    1.881269   -0.851537
     45          1           0       -0.646122    0.421072    1.464818
 ---------------------------------------------------------------------

 SCF Done:  E(RB3LYP) =  -1297.91863948     A.U. after   14 cycles

 The electronic state is 1-A.
 Alpha  occ. eigenvalues --  -19.19882 -19.19841 -19.18318 -19.17978 -19.17293
 Alpha  occ. eigenvalues --  -19.16486 -19.15296 -19.14917 -19.14832 -19.14588
 Alpha  occ. eigenvalues --  -19.14201 -10.32414 -10.28126 -10.27450 -10.26926
 Alpha  occ. eigenvalues --  -10.26880 -10.26556 -10.25611 -10.25037 -10.25025
 Alpha  occ. eigenvalues --  -10.23655 -10.23549 -10.21910  -1.11924  -1.08040
 Alpha  occ. eigenvalues --   -1.06698  -1.05492  -1.04031  -1.03269  -1.02642
 Alpha  occ. eigenvalues --   -1.02583  -1.01495  -1.00292  -0.99577  -0.83032
 Alpha  occ. eigenvalues --   -0.82326  -0.78987  -0.78028  -0.72705  -0.69203
 Alpha  occ. eigenvalues --   -0.68413  -0.65306  -0.64515  -0.62394  -0.61047
 Alpha  occ. eigenvalues --   -0.59753  -0.57807  -0.56773  -0.55496  -0.54670
 Alpha  occ. eigenvalues --   -0.53757  -0.53675  -0.53043  -0.52360  -0.51174
 Alpha  occ. eigenvalues --   -0.50387  -0.49203  -0.48933  -0.48310  -0.46958
 Alpha  occ. eigenvalues --   -0.46245  -0.45551  -0.44494  -0.43818  -0.43327
 Alpha  occ. eigenvalues --   -0.43214  -0.41939  -0.41015  -0.40265  -0.40128
 Alpha  occ. eigenvalues --   -0.38268  -0.37761  -0.37304  -0.36879  -0.36541
 Alpha  occ. eigenvalues --   -0.36043  -0.35117  -0.34102  -0.33491  -0.33277
 Alpha  occ. eigenvalues --   -0.32071  -0.31666  -0.30396  -0.29947  -0.29510
 Alpha  occ. eigenvalues --   -0.29351  -0.29071  -0.27765  -0.27040  -0.26125
 Alpha  occ. eigenvalues --   -0.25824
 Alpha virt. eigenvalues --   -0.04115  -0.01866  -0.00959  -0.00236   0.00084
 Alpha virt. eigenvalues --    0.01023   0.01246   0.01748   0.02134   0.02950
 Alpha virt. eigenvalues --    0.03204   0.04039   0.04725   0.05124   0.05465

 Mulliken atomic charges:
              1
     1  O   -0.529927
     2  C   -0.363199
     3  C    0.201021
     4  O   -0.575606
     5  H    0.340984
     6  C    0.251241
     7  O   -0.590488
     8  H    0.359276
     9  C   -0.384479
    10  O   -0.533694
    11  H    0.339589
    12  C    0.454822
    13  O   -0.233202
    14  C    0.121364
    15  O   -0.213163
    16  C   -0.095346
    17  C    0.282929
    18  O   -0.602720
    19  H    0.385031
    20  C   -0.082542
    21  O   -0.520191
    22  H    0.353036
    23  C   -0.325921
    24  O   -0.504754
    25  H    0.326375
    26  C    0.183963
    27  O   -0.230022
    28  C    0.204504
    29  O   -0.497955
    30  H    0.322892
    31  H    0.126224
    32  H    0.120640
    33  H    0.096089
    34  H    0.088565
    35  H    0.127473
    36  H    0.127157
    37  H    0.138749
    38  H    0.341174
    39  H    0.144896
    40  H    0.154550
    41  H    0.120379
    42  H    0.134948
    43  H    0.138486
    44  H    0.145531
    45  H    0.151320
 Sum of Mulliken atomic charges =   0.00000

 Dipole moment (field-independent basis, Debye):
    X=             -9.1222    Y=              0.4741    Z=             -1.5714  Tot=              9.2687
 Quadrupole moment (field-independent basis, Debye-Ang):
   XX=           -125.6693   YY=           -141.1840   ZZ=           -136.3473
   XY=              4.9811   XZ=              5.6267   YZ=              9.4046

  Exact polarizability: 224.930  -1.631 204.342   2.893   1.405 146.369
 Approx polarizability: 268.996  -0.898 266.029   3.913   0.910 241.907

 ******    7 imaginary frequencies (negative Signs) ******

                     1                      2                      3
                     A                      A                      A
 Frequencies --  -369.4098              -274.8182              -166.2444
 Red. masses --     1.6884                 1.8154                 1.0777
 Frc consts  --     0.1358                 0.0808                 0.0175
 IR Inten    --     1.7735                 6.8543               105.6287
 Raman Activ --     0.1282                 0.0546                 1.5790

                     4                      5                      6
                     A                      A                      A
 Frequencies --   -80.1120               -67.2270               -61.6298
 Red. masses --     3.5971                 6.3310                 7.3900
 Frc consts  --     0.0136                 0.0169                 0.0165
 IR Inten    --    25.7342                 2.2306                 1.0959
 Raman Activ --     0.1489                 0.0711                 0.0262

                     7                      8                      9
                     A                      A                      A
 Frequencies --   -29.7015                33.2137                54.6077
 Red. masses --     5.8598                 5.4793                 6.7697
 Frc consts  --     0.0030                 0.0036                 0.0119
 IR Inten    --     2.9296                14.3475                 0.2555
 Raman Activ --     0.1215                 0.0856                 0.0449

                    10                     11                     12
                     A                      A                      A
 Frequencies --    66.6085                80.9260               102.8094
 Red. masses --     6.9925                 1.8980                 5.7635
 Frc consts  --     0.0183                 0.0073                 0.0359
 IR Inten    --     2.1934                64.4450                 0.9838
 Raman Activ --     0.1613                 0.4760                 0.1968

                    13                     14                     15
                     A                      A                      A
 Frequencies --   116.8067               134.8331               171.3569
 Red. masses --     5.7106                 6.3833                 6.6896
 Frc consts  --     0.0459                 0.0684                 0.1157
 IR Inten    --     6.4367                 6.0414                 1.6026
 Raman Activ --     0.5245                 0.1160                 1.4089

                    16                     17                     18
                     A                      A                      A
 Frequencies --   195.2004               220.9087               258.1662
 Red. masses --     5.9857                 6.3641                 4.6743
 Frc consts  --     0.1344                 0.1830                 0.1836
 IR Inten    --     0.5593                 3.5057                14.7824
 Raman Activ --     1.1880                 1.0502                 0.1239

                    19                     20                     21
                     A                      A                      A
 Frequencies --   266.7084               287.1693               306.7538
 Red. masses --     4.6420                 6.4642                 5.0937
 Frc consts  --     0.1945                 0.3141                 0.2824
 IR Inten    --     3.6962                 1.5322                 6.9588
 Raman Activ --     0.2211                 0.1974                 2.5187

                    22                     23                     24
                     A                      A                      A
 Frequencies --   309.4714               327.3229               338.4764
 Red. masses --     4.9370                 5.3268                 5.1130
 Frc consts  --     0.2786                 0.3363                 0.3451
 IR Inten    --     2.3982                 4.1865                 0.9229
 Raman Activ --     2.5902                 0.9801                 0.1062

                    25                     26                     27
                     A                      A                      A
 Frequencies --   343.2845               356.7022               370.0323
 Red. masses --     5.8272                 4.0210                 5.0146
 Frc consts  --     0.4046                 0.3014                 0.4045
 IR Inten    --     1.6094                 3.3652                 2.0294
 Raman Activ --     6.1517                 0.3235                 0.8731

                    28                     29                     30
                     A                      A                      A
 Frequencies --   404.7125               418.4132               437.0676
 Red. masses --     6.5190                 4.3732                 5.6021
 Frc consts  --     0.6291                 0.4511                 0.6305
 IR Inten    --     0.7897                 7.9047                 5.8227
 Raman Activ --     4.5551                 3.7747                 0.3935

                    31                     32                     33
                     A                      A                      A
 Frequencies --   441.3530               476.0826               482.8221
 Red. masses --     4.6805                 4.6195                 3.2855
 Frc consts  --     0.5372                 0.6169                 0.4513
 IR Inten    --     7.4346                 6.6449                 5.3229
 Raman Activ --     4.4308                 0.7429                 0.5571

                    34                     35                     36
                     A                      A                      A
 Frequencies --   504.7988               554.6252               555.6836
 Red. masses --     3.9150                 4.7028                 5.3966
 Frc consts  --     0.5878                 0.8523                 0.9818
 IR Inten    --    22.8934                 3.4428                 9.1075
 Raman Activ --     3.9278                 1.7764                 7.1354

                    37                     38                     39
                     A                      A                      A
 Frequencies --   587.9121               601.1643               614.9923
 Red. masses --     3.3370                 3.1022                 3.4151
 Frc consts  --     0.6796                 0.6605                 0.7610
 IR Inten    --    16.0104                31.9730                13.5884
 Raman Activ --     0.3808                 0.3126                 0.3142

                    40                     41                     42
                     A                      A                      A
 Frequencies --   638.9573               662.3914               668.1459
 Red. masses --     1.0596                 2.9978                 4.1228
 Frc consts  --     0.2549                 0.7750                 1.0844
 IR Inten    --   103.2534                54.3097                 9.7485
 Raman Activ --     2.1370                 1.0587                 0.6831

                    43                     44                     45
                     A                      A                      A
 Frequencies --   680.1414               693.2912               703.8864
 Red. masses --     1.0819                 1.0909                 1.0922
 Frc consts  --     0.2949                 0.3089                 0.3188
 IR Inten    --   110.0278                46.0681               106.0104
 Raman Activ --     1.5003                 1.4455                 2.0782

                    46                     47                     48
                     A                      A                      A
 Frequencies --   728.3339               731.6157               835.2669
 Red. masses --     1.0924                 1.0795                 2.8794
 Frc consts  --     0.3414                 0.3404                 1.1836
 IR Inten    --     3.0803               190.3158                13.5602
 Raman Activ --     0.2649                 1.9510                 7.7006

                    49                     50                     51
                     A                      A                      A
 Frequencies --   873.6072               911.8276               937.5915
 Red. masses --     2.7796                 5.8394                 5.9341
 Frc consts  --     1.2499                 2.8605                 3.0735
 IR Inten    --    15.4954                43.0766               260.8166
 Raman Activ --     2.1430                 3.4168                 1.9503

                    52                     53                     54
                     A                      A                      A
 Frequencies --   966.2999               974.0542               985.7611
 Red. masses --     6.0034                 5.1259                 5.2841
 Frc consts  --     3.3027                 2.8654                 3.0253
 IR Inten    --    35.9821               129.4995               118.8749
 Raman Activ --     4.4515                 1.3188                 0.7161

                    55                     56                     57
                     A                      A                      A
 Frequencies --   991.1983              1003.9134              1017.2817
 Red. masses --     4.5896                 4.5421                 4.3011
 Frc consts  --     2.6567                 2.6971                 2.6225
 IR Inten    --     7.8781               178.7083                54.2312
 Raman Activ --     1.2637                 4.5374                 1.6068

                    58                     59                     60
                     A                      A                      A
 Frequencies --  1032.2628              1046.2784              1051.2844
 Red. masses --     2.9582                 3.1916                 3.3253
 Frc consts  --     1.8572                 2.0585                 2.1653
 IR Inten    --   179.4673                22.1586               235.1509
 Raman Activ --     2.3218                11.5965                 2.3791

                    61                     62                     63
                     A                      A                      A
 Frequencies --  1058.6695              1066.4429              1074.4592
 Red. masses --     4.2151                 5.2157                 4.9916
 Frc consts  --     2.7835                 3.4949                 3.3952
 IR Inten    --    65.6989                 6.9135                55.3001
 Raman Activ --    17.2554                 3.5990                10.4639

                    64                     65                     66
                     A                      A                      A
 Frequencies --  1091.1069              1095.8499              1102.9968
 Red. masses --     3.5526                 3.5225                 2.7224
 Frc consts  --     2.4919                 2.4923                 1.9514
 IR Inten    --   104.5265                41.2804                11.3788
 Raman Activ --     4.2425                 4.1356                 2.1089

                    67                     68                     69
                     A                      A                      A
 Frequencies --  1115.9611              1123.7254              1133.7013
 Red. masses --     3.2540                 2.2412                 2.1266
 Frc consts  --     2.3876                 1.6674                 1.6104
 IR Inten    --    12.3746                29.5739                28.7683
 Raman Activ --     2.6340                 2.5420                 2.5480

                    70                     71                     72
                     A                      A                      A
 Frequencies --  1138.8090              1160.1239              1165.0743
 Red. masses --     2.3340                 1.6704                 2.1473
 Frc consts  --     1.7835                 1.3246                 1.7173
 IR Inten    --    24.3230                 9.0296                 8.2204
 Raman Activ --     4.0439                 1.3179                 1.9030

                    73                     74                     75
                     A                      A                      A
 Frequencies --  1167.2653              1188.5991              1197.3508
 Red. masses --     1.9899                 1.7216                 2.6718
 Frc consts  --     1.5974                 1.4331                 2.2568
 IR Inten    --    42.8457                 5.5737                34.8504
 Raman Activ --     3.0370                 6.1558                 4.2750

                    76                     77                     78
                     A                      A                      A
 Frequencies --  1199.7168              1213.7561              1225.7770
 Red. masses --     1.4852                 1.3384                 1.4418
 Frc consts  --     1.2595                 1.1617                 1.2764
 IR Inten    --     4.3529                12.3069                10.7796
 Raman Activ --     1.1960                 3.1640                 2.0156

                    79                     80                     81
                     A                      A                      A
 Frequencies --  1226.8251              1246.3800              1259.2515
 Red. masses --     1.5431                 1.3710                 1.3810
 Frc consts  --     1.3684                 1.2548                 1.2902
 IR Inten    --     6.6116                17.7318                31.9496
 Raman Activ --     4.3884                 0.5149                 1.0416

                    82                     83                     84
                     A                      A                      A
 Frequencies --  1267.1949              1270.9488              1286.5283
 Red. masses --     1.3499                 1.3257                 1.2361
 Frc consts  --     1.2771                 1.2617                 1.2054
 IR Inten    --    24.5666                27.1527                 5.8553
 Raman Activ --     2.1334                 0.5090                 5.1376

                    85                     86                     87
                     A                      A                      A
 Frequencies --  1289.1588              1303.6243              1309.1685
 Red. masses --     1.2592                 1.2714                 1.1734
 Frc consts  --     1.2330                 1.2730                 1.1849
 IR Inten    --     2.4980                16.6137                20.9560
 Raman Activ --     3.4264                 8.2451                 3.6639

                    88                     89                     90
                     A                      A                      A
 Frequencies --  1317.3053              1328.3883              1329.1796
 Red. masses --     1.2179                 1.2441                 1.2890
 Frc consts  --     1.2452                 1.2935                 1.3418
 IR Inten    --    56.4466                44.0775                44.7543
 Raman Activ --     2.3246                 2.2413                 5.2321

                    91                     92                     93
                     A                      A                      A
 Frequencies --  1348.6647              1351.7540              1373.7942
 Red. masses --     1.5802                 1.5098                 1.2357
 Frc consts  --     1.6934                 1.6254                 1.3740
 IR Inten    --     5.4704                 5.4366                12.8142
 Raman Activ --     3.7437                 4.2083                 1.6777

                    94                     95                     96
                     A                      A                      A
 Frequencies --  1378.0998              1394.6905              1399.0040
 Red. masses --     1.3575                 1.3220                 1.1091
 Frc consts  --     1.5190                 1.5151                 1.2790
 IR Inten    --    22.1351                 8.4006                22.8988
 Raman Activ --     5.7805                 3.5149                 3.9409

                    97                     98                     99
                     A                      A                      A
 Frequencies --  1405.2422              1409.1957              1424.4408
 Red. masses --     1.4988                 1.2031                 1.0756
 Frc consts  --     1.7438                 1.4076                 1.2859
 IR Inten    --    17.5562                 9.7826                23.9407
 Raman Activ --     2.2121                 5.2450                 2.4390

                   100                    101                    102
                     A                      A                      A
 Frequencies --  1432.1998              1436.2287              1438.7285
 Red. masses --     1.5341                 1.1957                 1.3750
 Frc consts  --     1.8541                 1.4532                 1.6770
 IR Inten    --    20.3696                35.8972                12.1116
 Raman Activ --     4.0042                 3.0087                 0.8116

                   103                    104                    105
                     A                      A                      A
 Frequencies --  1448.9609              1452.6124              1463.9590
 Red. masses --     1.4371                 1.0748                 1.1261
 Frc consts  --     1.7777                 1.3362                 1.4220
 IR Inten    --     8.2053                 3.4623                11.9435
 Raman Activ --     5.0302                 5.6192                 4.7336

                   106                    107                    108
                     A                      A                      A
 Frequencies --  1470.0007              1518.8316              3227.5903
 Red. masses --     1.2911                 1.2764                 1.0767
 Frc consts  --     1.6438                 1.7348                 6.6082
 IR Inten    --    84.6153                14.3354                42.3656
 Raman Activ --     1.6127                 0.9788                72.0504

                   109                    110                    111
                     A                      A                      A
 Frequencies --  3239.5451              3249.7127              3256.3430
 Red. masses --     1.0625                 1.0793                 1.0712
 Frc consts  --     6.5696                 6.7156                 6.6926
 IR Inten    --    16.0286                43.9237                14.7562
 Raman Activ --    81.2774                28.1273               145.0884

                   112                    113                    114
                     A                      A                      A
 Frequencies --  3263.4330              3279.0470              3282.2031
 Red. masses --     1.0690                 1.0829                 1.0895
 Frc consts  --     6.7076                 6.8603                 6.9152
 IR Inten    --    20.2595                14.9936                 3.3513
 Raman Activ --    11.6673                74.1372                22.3036

                   115                    116                    117
                     A                      A                      A
 Frequencies --  3282.8110              3283.4648              3293.7729
 Red. masses --     1.0863                 1.0833                 1.0877
 Frc consts  --     6.8978                 6.8809                 6.9526
 IR Inten    --     2.6553                10.6818                51.5043
 Raman Activ --   177.2757                77.1983                12.8907

                   118                    119                    120
                     A                      A                      A
 Frequencies --  3298.0529              3301.6691              3310.5836
 Red. masses --     1.0858                 1.0942                 1.0827
 Frc consts  --     6.9586                 7.0279                 6.9916
 IR Inten    --    32.6103                81.7449               108.6893
 Raman Activ --     6.9197                49.5912                36.3591

                   121                    122                    123
                     A                      A                      A
 Frequencies --  3314.0138              3318.4717              3365.9274
 Red. masses --     1.1028                 1.0724                 1.0663
 Frc consts  --     7.1361                 6.9581                 7.1180
 IR Inten    --    49.6174               413.0612                60.4805
 Raman Activ --    26.9213               199.2614                72.3830

                   124                    125                    126
                     A                      A                      A
 Frequencies --  3366.6182              3369.6012              3370.2730
 Red. masses --     1.0656                 1.0671                 1.0668
 Frc consts  --     7.1160                 7.1383                 7.1396
 IR Inten    --    40.5690                55.0334                72.3464
 Raman Activ --    74.5046                47.5372               165.9406

                   127                    128                    129
                     A                      A                      A
 Frequencies --  3371.7013              3884.2469              3887.4141
 Red. masses --     1.0678                 1.0679                 1.0669
 Frc consts  --     7.1524                 9.4924                 9.4991
 IR Inten    --    54.0565                74.9490                57.0454
 Raman Activ --   208.4850                81.8765               142.0673

 - Thermochemistry -
 -------------------
 Temperature   298.150 Kelvin.  Pressure   1.00000 Atm.
 Atom     1 has atomic number  8 and mass  15.99491

 Molecular mass:   342.11621 amu.
 Principal axes and moments of inertia in atomic units:
                           1         2         3
     Eigenvalues --  4774.86445********************
           X            0.99998   0.00570   0.00195
           Y           -0.00571   0.99997   0.00582
           Z           -0.00191  -0.00583   0.99998
 This molecule is an asymmetric top.
 Rotational symmetry number  1.
 Warning -- assumption of classical behavior for rotation
           may cause significant error
 Rotational temperatures (Kelvin)      0.01814     0.00722     0.00535
 Rotational constants (GHZ):           0.37797     0.15044     0.11146
    7 imaginary frequencies ignored.
 Zero-point vibrational energy     971790.1 (Joules/Mol)
                                  232.26341 (Kcal/Mol)
 Warning -- explicit consideration of  32 degrees of freedom as
           vibrations may cause significant error
 Vibrational temperatures:     47.79    78.57    95.83   116.43   147.92
          (Kelvin)            168.06   193.99   246.54   280.85   317.84
                              371.44   383.73   413.17   441.35   445.26
                              470.94   486.99   493.91   513.21   532.39
                              582.29   602.00   628.84   635.01   684.98
                              694.67   726.29   797.98   799.50   845.87
                              864.94   884.84   919.32   953.03   961.31
                              978.57   997.49  1012.73  1047.91  1052.63
                             1201.76  1256.92  1311.91  1348.98  1390.29
                             1401.44  1418.29  1426.11  1444.41  1463.64
                             1485.19  1505.36  1512.56  1523.19  1534.37
                             1545.91  1569.86  1576.68  1586.96  1605.62
                             1616.79  1631.14  1638.49  1669.16  1676.28
                             1679.43  1710.13  1722.72  1726.12  1746.32
                             1763.62  1765.13  1793.26  1811.78  1823.21
                             1828.61  1851.02  1854.81  1875.62  1883.60
                             1895.31  1911.25  1912.39  1940.43  1944.87
                             1976.58  1982.78  2006.65  2012.85  2021.83
                             2027.52  2049.45  2060.61  2066.41  2070.01
                             2084.73  2089.98  2106.31  2115.00  2185.26
                             4643.78  4660.98  4675.61  4685.15  4695.35
                             4717.81  4722.35  4723.23  4724.17  4739.00
                             4745.16  4750.36  4763.19  4768.12  4774.53
                             4842.81  4843.81  4848.10  4849.07  4851.12
                             5588.56  5593.11

 Zero-point correction=                           0.370135 (Hartree/Particle)
 Thermal correction to Energy=                    0.388902
 Thermal correction to Enthalpy=                  0.389846
 Thermal correction to Gibbs Free Energy=         0.323353
 Sum of electronic and zero-point Energies=          -1297.548504
 Sum of electronic and thermal Energies=             -1297.529737
 Sum of electronic and thermal Enthalpies=           -1297.528793
 Sum of electronic and thermal Free Energies=        -1297.595286

                     E (Thermal)             CV                S
                      KCal/Mol        Cal/Mol-Kelvin    Cal/Mol-Kelvin
 Total                  244.040             76.709            139.947
 Electronic               0.000              0.000              0.000
 Translational            0.889              2.981             43.384
 Rotational               0.889              2.981             35.182
 Vibrational            242.262             70.747             61.380
 Vibration     1          0.594              1.983              5.628
 Vibration     2          0.596              1.976              4.643
 Vibration     3          0.598              1.970              4.251
 Vibration     4          0.600              1.962              3.868
 Vibration     5          0.605              1.947              3.400
 Vibration     6          0.608              1.935              3.153
 Vibration     7          0.613              1.919              2.876
 Vibration     8          0.626              1.878              2.421
 Vibration     9          0.636              1.847              2.178
 Vibration    10          0.648              1.809              1.952
 Vibration    11          0.667              1.749              1.674
 Vibration    12          0.672              1.734              1.617
 Vibration    13          0.684              1.698              1.491
 Vibration    14          0.697              1.661              1.380
 Vibration    15          0.699              1.656              1.365
 Vibration    16          0.711              1.621              1.273
 Vibration    17          0.719              1.599              1.219
 Vibration    18          0.722              1.589              1.197
 Vibration    19          0.732              1.561              1.136
 Vibration    20          0.742              1.534              1.080
 Vibration    21          0.770              1.460              0.945
 Vibration    22          0.781              1.430              0.897
 Vibration    23          0.797              1.389              0.836
 Vibration    24          0.801              1.380              0.822
 Vibration    25          0.833              1.303              0.721
 Vibration    26          0.839              1.288              0.702
 Vibration    27          0.860              1.239              0.646
 Vibration    28          0.910              1.130              0.535
 Vibration    29          0.911              1.127              0.533
 Vibration    30          0.945              1.058              0.471
 Vibration    31          0.959              1.029              0.448
 Vibration    32          0.974              1.000              0.425

 Normal termination of Gaussian 09 at Fri Apr  1 12:59:15 2016.
