 Gaussian 09, Revision B.01,
 Gaussian 09:  EM64L-G09RevB.01 12-Aug-2010

 -------------------------------------------------
 # freq=raman b3lyp/6-31+g(2d,p) geom=connectivity
 -------------------------------------------------

 -----------------
 280 5821/5821.com
 -----------------
 Symbolic Z-matrix:
 Charge =  0 Multiplicity = 1

                         Standard orientation:
 ---------------------------------------------------------------------
 Center     Atomic      Atomic             Coordinates (Angstroms)
 Number     Number       Type             X           Y           Z
 ---------------------------------------------------------------------
      1          8           0       -4.974964   -0.281773    0.338031
      2          6           0       -3.654050   -0.103561   -0.193153
      3          6           0       -3.200173    1.293425    0.194820
      4          8           0       -4.102862    2.226054   -0.418240
      5          1           0       -5.032565    2.013452   -0.117632
      6          6           0       -1.745895    1.587628   -0.137896
      7          8           0       -1.222828    2.723353    0.565330
      8          1           0       -0.288723    2.917928    0.266878
      9          6           0       -3.020676   -2.519006   -0.109878
     10          8           0       -4.191484   -3.304211    0.159684
     11          1           0       -4.017815   -4.285970    0.079579
     12          6           0       -2.704909   -1.126372    0.411001
     13          8           0       -1.371264   -0.928860   -0.079890
     14          6           0       -0.868072    0.388619    0.182219
     15          8           0        0.283351    0.529571   -0.661858
     16          6           0        1.435956    0.198701    0.125032
     17          6           0        1.930795   -1.169502   -0.316516
     18          8           0        1.014637   -2.223327    0.011753
     19          1           0        0.097034   -1.837839   -0.089543
     20          6           0        3.345516   -1.535337    0.100605
     21          8           0        4.033443   -2.635519   -0.512281
     22          1           0        4.812355   -2.820488    0.085923
     23          6           0        2.226620    2.622369    0.236762
     24          8           0        1.120325    3.230472   -0.446310
     25          1           0        1.113591    4.230197   -0.424649
     26          6           0        2.484033    1.219222   -0.288627
     27          8           0        3.758289    0.883533    0.280540
     28          6           0        4.290572   -0.374238   -0.161974
     29          8           0        5.395414   -0.552778    0.736381
     30          1           0        6.176076   -0.804325    0.237493
     31          1           0       -5.583954   -0.477753   -0.377737
     32          1           0       -2.197964   -3.127536    0.202752
     33          1           0       -2.980067   -2.434600   -1.175770
     34          1           0       -2.731209   -1.098574    1.480316
     35          1           0       -3.670344   -0.201632   -1.258524
     36          1           0       -3.311265    1.385621    1.255036
     37          1           0       -1.676539    1.783129   -1.187596
     38          1           0       -0.560312    0.446178    1.205385
     39          1           0        3.102215    3.219280    0.088675
     40          1           0        2.008631    2.571429    1.283082
     41          1           0        2.561813    1.243183   -1.355527
     42          1           0        1.231001    0.235318    1.174581
     43          1           0        1.951448   -1.130482   -1.385605
     44          1           0        3.331136   -1.712666    1.155710
     45          1           0        4.610710   -0.337641   -1.182303
 ---------------------------------------------------------------------

 SCF Done:  E(RB3LYP) =  -1297.98496769     A.U. after   13 cycles

 The electronic state is 1-A.
 Alpha  occ. eigenvalues --  -19.19309 -19.19306 -19.18352 -19.17443 -19.17119
 Alpha  occ. eigenvalues --  -19.17098 -19.16278 -19.15925 -19.14879 -19.13421
 Alpha  occ. eigenvalues --  -19.13284 -10.30211 -10.29847 -10.25992 -10.25710
 Alpha  occ. eigenvalues --  -10.25657 -10.25558 -10.25042 -10.24320 -10.24306
 Alpha  occ. eigenvalues --  -10.24027 -10.23915 -10.23914  -1.10798  -1.08810
 Alpha  occ. eigenvalues --   -1.06258  -1.05596  -1.04678  -1.03514  -1.02288
 Alpha  occ. eigenvalues --   -1.02153  -1.01647  -1.00555  -1.00047  -0.82064
 Alpha  occ. eigenvalues --   -0.80434  -0.79127  -0.78151  -0.71970  -0.69877
 Alpha  occ. eigenvalues --   -0.67145  -0.65444  -0.63531  -0.63115  -0.61123
 Alpha  occ. eigenvalues --   -0.59798  -0.56804  -0.56072  -0.55082  -0.54806
 Alpha  occ. eigenvalues --   -0.54296  -0.53437  -0.52818  -0.51942  -0.51020
 Alpha  occ. eigenvalues --   -0.50377  -0.50174  -0.49657  -0.48843  -0.47023
 Alpha  occ. eigenvalues --   -0.45779  -0.44800  -0.44197  -0.43602  -0.43279
 Alpha  occ. eigenvalues --   -0.42827  -0.41975  -0.41367  -0.40025  -0.39771
 Alpha  occ. eigenvalues --   -0.38754  -0.38192  -0.37820  -0.37110  -0.36109
 Alpha  occ. eigenvalues --   -0.35173  -0.34782  -0.34361  -0.33903  -0.33650
 Alpha  occ. eigenvalues --   -0.32523  -0.31790  -0.30900  -0.30198  -0.29927
 Alpha  occ. eigenvalues --   -0.29356  -0.28519  -0.27847  -0.27729  -0.26735
 Alpha  occ. eigenvalues --   -0.26178
 Alpha virt. eigenvalues --   -0.01945  -0.01736  -0.01524  -0.00160   0.00391
 Alpha virt. eigenvalues --    0.00844   0.02046   0.02229   0.02807   0.03641
 Alpha virt. eigenvalues --    0.03786   0.04406   0.04995   0.05434   0.05836

 Mulliken atomic charges:
              1
     1  O   -0.546244
     2  C   -0.009311
     3  C    0.277623
     4  O   -0.569235
     5  H    0.345716
     6  C   -0.204465
     7  O   -0.594596
     8  H    0.435022
     9  C   -0.274979
    10  O   -0.565514
    11  H    0.341222
    12  C    0.273871
    13  O   -0.278118
    14  C    0.134634
    15  O   -0.147816
    16  C    0.248755
    17  C    0.163743
    18  O   -0.604830
    19  H    0.403738
    20  C    0.010957
    21  O   -0.535305
    22  H    0.338313
    23  C   -0.239096
    24  O   -0.596164
    25  H    0.373450
    26  C   -0.068030
    27  O   -0.254570
    28  C    0.167353
    29  O   -0.543472
    30  H    0.333279
    31  H    0.342460
    32  H    0.138136
    33  H    0.138930
    34  H    0.120435
    35  H    0.125129
    36  H    0.126512
    37  H    0.136107
    38  H    0.115932
    39  H    0.151478
    40  H    0.159462
    41  H    0.127265
    42  H    0.112920
    43  H    0.116393
    44  H    0.134785
    45  H    0.138122
 Sum of Mulliken atomic charges =   0.00000

 Dipole moment (field-independent basis, Debye):
    X=              2.1248    Y=              0.6643    Z=             -1.0808  Tot=              2.4747
 Quadrupole moment (field-independent basis, Debye-Ang):
   XX=           -122.0255   YY=           -134.5499   ZZ=           -140.1568
   XY=             12.6049   XZ=              1.4783   YZ=             -1.9291

  Exact polarizability: 232.385  -1.538 196.383   0.935   0.068 142.740
 Approx polarizability: 272.337  -1.755 255.828   0.939  -0.695 239.373

 ******    6 imaginary frequencies (negative Signs) ******

                     1                      2                      3
                     A                      A                      A
 Frequencies --  -316.4228              -225.3148              -219.1110
 Red. masses --     1.6998                 1.2243                 1.1620
 Frc consts  --     0.1003                 0.0366                 0.0329
 IR Inten    --     7.5568               111.3175               124.2718
 Raman Activ --     0.0365                 1.1489                 0.6514

                     4                      5                      6
                     A                      A                      A
 Frequencies --  -179.9340               -71.0409               -38.8922
 Red. masses --     2.0070                 6.2079                 6.4607
 Frc consts  --     0.0383                 0.0185                 0.0058
 IR Inten    --     5.1213                 1.0917                 0.8562
 Raman Activ --     0.0992                 0.0418                 0.0267

                     7                      8                      9
                     A                      A                      A
 Frequencies --    30.5562                44.2712                55.0293
 Red. masses --     6.6718                 6.7662                 6.8999
 Frc consts  --     0.0037                 0.0078                 0.0123
 IR Inten    --     0.8632                 0.5384                 2.7536
 Raman Activ --     0.0520                 0.0374                 0.0258

                    10                     11                     12
                     A                      A                      A
 Frequencies --    76.9271                98.0694               118.2828
 Red. masses --     5.6688                 5.6237                 5.8116
 Frc consts  --     0.0198                 0.0319                 0.0479
 IR Inten    --     6.0765                 0.6038                 2.9560
 Raman Activ --     0.1897                 0.3454                 0.2134

                    13                     14                     15
                     A                      A                      A
 Frequencies --   158.8338               174.3371               192.8392
 Red. masses --     6.4492                 6.7359                 6.6776
 Frc consts  --     0.0959                 0.1206                 0.1463
 IR Inten    --     5.5721                 0.6893                 2.9325
 Raman Activ --     0.4497                 0.2703                 0.6017

                    16                     17                     18
                     A                      A                      A
 Frequencies --   227.2779               240.4759               275.5707
 Red. masses --     6.7293                 6.1182                 4.4426
 Frc consts  --     0.2048                 0.2085                 0.1988
 IR Inten    --     0.1698                 1.9778                21.6781
 Raman Activ --     2.6526                 0.6528                 0.2808

                    19                     20                     21
                     A                      A                      A
 Frequencies --   281.2700               307.3096               310.1354
 Red. masses --     5.7007                 5.1204                 4.5617
 Frc consts  --     0.2657                 0.2849                 0.2585
 IR Inten    --     3.1588                 0.1854                 2.3918
 Raman Activ --     0.0934                 0.3081                 0.2504

                    22                     23                     24
                     A                      A                      A
 Frequencies --   317.0930               324.3471               335.1208
 Red. masses --     6.9568                 6.3076                 5.2198
 Frc consts  --     0.4121                 0.3910                 0.3454
 IR Inten    --     8.4278                 2.9619                 1.0679
 Raman Activ --     1.9672                 2.8814                 3.4666

                    25                     26                     27
                     A                      A                      A
 Frequencies --   354.2197               371.5576               394.1813
 Red. masses --     6.7543                 4.7263                 6.6278
 Frc consts  --     0.4993                 0.3844                 0.6068
 IR Inten    --    12.2274                 5.0954                 1.3728
 Raman Activ --     1.1623                 0.4343                 0.4433

                    28                     29                     30
                     A                      A                      A
 Frequencies --   412.7216               423.8407               441.7268
 Red. masses --     4.1244                 6.5005                 4.5961
 Frc consts  --     0.4139                 0.6880                 0.5284
 IR Inten    --    17.7557                 6.6704                 2.7940
 Raman Activ --     2.6463                 6.8420                 1.2667

                    31                     32                     33
                     A                      A                      A
 Frequencies --   453.0588               487.1922               503.7759
 Red. masses --     5.2943                 4.9515                 3.5766
 Frc consts  --     0.6403                 0.6924                 0.5348
 IR Inten    --     5.0582                 6.3549                18.0179
 Raman Activ --     3.1160                 1.6307                 1.1866

                    34                     35                     36
                     A                      A                      A
 Frequencies --   512.9183               546.9096               580.4203
 Red. masses --     3.7620                 2.9994                 4.9532
 Frc consts  --     0.5831                 0.5286                 0.9832
 IR Inten    --     5.4575                 5.9408                 1.7502
 Raman Activ --     4.0361                 3.5497                 2.3171

                    37                     38                     39
                     A                      A                      A
 Frequencies --   597.1479               612.1652               629.5587
 Red. masses --     3.1924                 5.3181                 4.7794
 Frc consts  --     0.6707                 1.1742                 1.1161
 IR Inten    --    25.4074                14.2058                11.2312
 Raman Activ --     0.5199                 0.3663                 0.7127

                    40                     41                     42
                     A                      A                      A
 Frequencies --   648.7181               662.3775               692.7301
 Red. masses --     1.1615                 3.5045                 5.1181
 Frc consts  --     0.2880                 0.9059                 1.4471
 IR Inten    --    81.8611                62.9174                16.3350
 Raman Activ --     1.7757                 1.0838                 0.6295

                    43                     44                     45
                     A                      A                      A
 Frequencies --   733.1759               741.2384               761.2776
 Red. masses --     1.0859                 1.0878                 1.0645
 Frc consts  --     0.3439                 0.3521                 0.3635
 IR Inten    --   137.2170                87.7007                97.5545
 Raman Activ --     1.8461                 1.2156                 1.6924

                    46                     47                     48
                     A                      A                      A
 Frequencies --   803.6502               843.6472               862.2725
 Red. masses --     1.0713                 1.7693                 1.5177
 Frc consts  --     0.4077                 0.7419                 0.6648
 IR Inten    --    67.2265                 2.8553                 6.6102
 Raman Activ --     1.0003                 0.5462                 0.4220

                    49                     50                     51
                     A                      A                      A
 Frequencies --   928.5585               942.2140               956.5983
 Red. masses --     1.8230                 2.1825                 5.1154
 Frc consts  --     0.9261                 1.1416                 2.7580
 IR Inten    --    82.6803               115.1883                49.1484
 Raman Activ --     1.5291                 3.0374                 1.0365

                    52                     53                     54
                     A                      A                      A
 Frequencies --   974.5670               985.2154               990.3871
 Red. masses --     6.7894                 5.5575                 4.4711
 Frc consts  --     3.7993                 3.1783                 2.5839
 IR Inten    --    14.0722                23.5760               242.5754
 Raman Activ --     3.6063                 2.2621                 1.2287

                    55                     56                     57
                     A                      A                      A
 Frequencies --  1002.3493              1011.2688              1028.1207
 Red. masses --     5.9200                 5.8394                 6.7293
 Frc consts  --     3.5043                 3.5185                 4.1909
 IR Inten    --   301.3485                20.3763               137.4795
 Raman Activ --     2.2576                 1.2424                 5.4508

                    58                     59                     60
                     A                      A                      A
 Frequencies --  1040.1411              1047.5788              1057.6357
 Red. masses --     5.1359                 5.2940                 4.5569
 Frc consts  --     3.2738                 3.4230                 3.0032
 IR Inten    --   195.9909               109.4365                41.3502
 Raman Activ --     4.8708                 6.8595                 2.2321

                    61                     62                     63
                     A                      A                      A
 Frequencies --  1064.1168              1071.8928              1072.5705
 Red. masses --     5.1897                 4.3482                 3.8880
 Frc consts  --     3.4624                 2.9435                 2.6353
 IR Inten    --   138.3142                49.9533                69.4102
 Raman Activ --     3.7148                 6.8258                20.8439

                    64                     65                     66
                     A                      A                      A
 Frequencies --  1094.3644              1099.7212              1113.9549
 Red. masses --     3.4230                 2.9947                 2.2453
 Frc consts  --     2.4154                 2.1339                 1.6416
 IR Inten    --    31.9305                26.4824                16.9970
 Raman Activ --    14.8178                 2.2964                 3.7467

                    67                     68                     69
                     A                      A                      A
 Frequencies --  1114.8647              1121.9885              1126.4960
 Red. masses --     2.4683                 2.3903                 2.7085
 Frc consts  --     1.8076                 1.7729                 2.0251
 IR Inten    --    20.6982                27.5863                 4.9026
 Raman Activ --     4.8919                 1.0371                 1.7616

                    70                     71                     72
                     A                      A                      A
 Frequencies --  1132.8177              1139.2545              1154.2032
 Red. masses --     1.9688                 2.0341                 2.2332
 Frc consts  --     1.4885                 1.5555                 1.7528
 IR Inten    --    21.9450                42.9211                64.4343
 Raman Activ --     6.2126                 0.7501                 6.2733

                    73                     74                     75
                     A                      A                      A
 Frequencies --  1161.5432              1171.7453              1188.4544
 Red. masses --     1.4852                 1.3808                 1.7826
 Frc consts  --     1.1806                 1.1170                 1.4834
 IR Inten    --     8.7252                 4.3658                17.6521
 Raman Activ --     1.1330                 1.3129                 2.8796

                    76                     77                     78
                     A                      A                      A
 Frequencies --  1204.2444              1205.9411              1223.6616
 Red. masses --     1.3835                 1.4546                 1.3205
 Frc consts  --     1.1821                 1.2464                 1.1650
 IR Inten    --    13.8344                14.2739                 9.9543
 Raman Activ --     3.3381                 1.9647                 1.5397

                    79                     80                     81
                     A                      A                      A
 Frequencies --  1232.1316              1250.9382              1256.3175
 Red. masses --     1.2844                 1.3990                 1.2585
 Frc consts  --     1.1489                 1.2899                 1.1703
 IR Inten    --     2.4176                 3.4583                 1.6493
 Raman Activ --     0.6228                 2.4270                 2.6383

                    82                     83                     84
                     A                      A                      A
 Frequencies --  1262.7663              1270.3172              1277.4875
 Red. masses --     1.2460                 1.2471                 1.3879
 Frc consts  --     1.1706                 1.1857                 1.3345
 IR Inten    --    20.3353                 1.0550                30.8934
 Raman Activ --     1.0868                 1.1948                 0.8279

                    85                     86                     87
                     A                      A                      A
 Frequencies --  1290.2999              1297.6182              1303.5841
 Red. masses --     1.3758                 1.2347                 1.3797
 Frc consts  --     1.3495                 1.2249                 1.3814
 IR Inten    --    22.6830                20.1061                44.6353
 Raman Activ --     1.7435                 2.1272                 4.9708

                    88                     89                     90
                     A                      A                      A
 Frequencies --  1310.7768              1323.0266              1327.7383
 Red. masses --     1.1816                 1.2700                 1.2838
 Frc consts  --     1.1961                 1.3098                 1.3334
 IR Inten    --     3.2853                25.7248                 8.3628
 Raman Activ --     8.0845                 3.1395                 5.4135

                    91                     92                     93
                     A                      A                      A
 Frequencies --  1337.0492              1341.1103              1353.2317
 Red. masses --     1.3043                 1.3621                 1.3739
 Frc consts  --     1.3738                 1.4434                 1.4824
 IR Inten    --    63.7499                18.1978                21.5514
 Raman Activ --     4.0313                 5.8814                 4.4248

                    94                     95                     96
                     A                      A                      A
 Frequencies --  1360.6215              1364.2790              1366.0492
 Red. masses --     1.1184                 1.4671                 1.5898
 Frc consts  --     1.2199                 1.6088                 1.7479
 IR Inten    --    23.9975                 7.5719                 3.6864
 Raman Activ --     2.2750                 6.0790                 8.5917

                    97                     98                     99
                     A                      A                      A
 Frequencies --  1366.4334              1394.9504              1422.1161
 Red. masses --     1.2311                 1.6096                 1.4067
 Frc consts  --     1.3544                 1.8453                 1.6761
 IR Inten    --    21.7811                 5.6833                10.1739
 Raman Activ --     4.1701                 1.4997                 3.4628

                   100                    101                    102
                     A                      A                      A
 Frequencies --  1425.9660              1434.8834              1454.5060
 Red. masses --     1.3761                 1.4619                 1.2655
 Frc consts  --     1.6486                 1.7734                 1.5774
 IR Inten    --    27.0628                27.9143                30.7906
 Raman Activ --     8.1001                 2.3324                 3.5373

                   103                    104                    105
                     A                      A                      A
 Frequencies --  1456.5427              1467.2323              1479.8920
 Red. masses --     1.2546                 1.2043                 1.0768
 Frc consts  --     1.5682                 1.5275                 1.3894
 IR Inten    --     4.9251                 4.1849                 6.7714
 Raman Activ --     3.2036                 1.0933                 4.5527

                   106                    107                    108
                     A                      A                      A
 Frequencies --  1498.5316              1540.9569              3198.3352
 Red. masses --     1.2648                 1.2278                 1.0694
 Frc consts  --     1.6734                 1.7177                 6.4454
 IR Inten    --    31.6085                42.9859              1049.4732
 Raman Activ --     0.9922                 2.0297               180.6230

                   109                    110                    111
                     A                      A                      A
 Frequencies --  3249.3180              3256.1725              3266.8716
 Red. masses --     1.0576                 1.0771                 1.0582
 Frc consts  --     6.5787                 6.7288                 6.6539
 IR Inten    --    35.8187               295.6769                30.9408
 Raman Activ --    75.4942                99.1056               149.6961

                   112                    113                    114
                     A                      A                      A
 Frequencies --  3271.3499              3275.7366              3276.2858
 Red. masses --     1.0785                 1.0795                 1.0825
 Frc consts  --     6.8003                 6.8246                 6.8458
 IR Inten    --   235.5940               375.8648                18.8480
 Raman Activ --    58.8270                60.7684                82.3906

                   115                    116                    117
                     A                      A                      A
 Frequencies --  3285.7370              3285.9751              3287.6702
 Red. masses --     1.0842                 1.0844                 1.0844
 Frc consts  --     6.8966                 6.8989                 6.9058
 IR Inten    --    10.9719                 0.6473                24.4908
 Raman Activ --    12.1747                68.5462               163.6449

                   118                    119                    120
                     A                      A                      A
 Frequencies --  3290.9330              3297.1985              3299.9356
 Red. masses --     1.0867                 1.0872                 1.0900
 Frc consts  --     6.9339                 6.9641                 6.9936
 IR Inten    --    14.6075                24.2462                 2.5894
 Raman Activ --    27.6563                60.6551                25.9385

                   121                    122                    123
                     A                      A                      A
 Frequencies --  3303.2687              3311.6395              3330.6361
 Red. masses --     1.0869                 1.0982                 1.1089
 Frc consts  --     6.9876                 7.0959                 7.2476
 IR Inten    --    81.0857                81.8160                26.3548
 Raman Activ --     9.1669                18.8910                46.9984

                   124                    125                    126
                     A                      A                      A
 Frequencies --  3365.4380              3368.1321              3373.1993
 Red. masses --     1.0689                 1.0653                 1.0676
 Frc consts  --     7.1330                 7.1205                 7.1572
 IR Inten    --    58.7678                41.4199                71.7239
 Raman Activ --   148.5839               121.8713               139.8624

                   127                    128                    129
                     A                      A                      A
 Frequencies --  3375.1331              3889.6140              3890.3845
 Red. masses --     1.0657                 1.0673                 1.0676
 Frc consts  --     7.1525                 9.5134                 9.5197
 IR Inten    --    39.7434                68.1451                69.6497
 Raman Activ --   120.2041               111.2176                97.2939

 - Thermochemistry -
 -------------------
 Temperature   298.150 Kelvin.  Pressure   1.00000 Atm.
 Atom     1 has atomic number  8 and mass  15.99491

 Molecular mass:   342.11621 amu.
 Principal axes and moments of inertia in atomic units:
                           1         2         3
     Eigenvalues --  4377.74443********************
           X            0.99998   0.00649   0.00032
           Y           -0.00649   0.99998   0.00135
           Z           -0.00031  -0.00135   1.00000
 This molecule is an asymmetric top.
 Rotational symmetry number  1.
 Warning -- assumption of classical behavior for rotation
           may cause significant error
 Rotational temperatures (Kelvin)      0.01979     0.00718     0.00541
 Rotational constants (GHZ):           0.41225     0.14954     0.11275
    6 imaginary frequencies ignored.
 Zero-point vibrational energy     976637.4 (Joules/Mol)
                                  233.42193 (Kcal/Mol)
 Warning -- explicit consideration of  32 degrees of freedom as
           vibrations may cause significant error
 Vibrational temperatures:     43.96    63.70    79.17   110.68   141.10
          (Kelvin)            170.18   228.53   250.83   277.45   327.00
                              345.99   396.48   404.68   442.15   446.22
                              456.23   466.66   482.16   509.64   534.59
                              567.14   593.81   609.81   635.55   651.85
                              700.96   724.82   737.97   786.88   835.09
                              859.16   880.77   905.79   933.36   953.01
                              996.68  1054.88  1066.48  1095.31  1156.27
                             1213.82  1240.62  1335.99  1355.63  1376.33
                             1402.18  1417.50  1424.94  1442.16  1454.99
                             1479.23  1496.53  1507.23  1521.70  1531.02
                             1542.21  1543.19  1574.54  1582.25  1602.73
                             1604.04  1614.29  1620.77  1629.87  1639.13
                             1660.64  1671.20  1685.88  1709.92  1732.64
                             1735.08  1760.57  1772.76  1799.82  1807.56
                             1816.84  1827.70  1838.02  1856.45  1866.98
                             1875.56  1885.91  1903.54  1910.32  1923.71
                             1929.56  1947.00  1957.63  1962.89  1965.44
                             1965.99  2007.02  2046.11  2051.64  2064.47
                             2092.71  2095.64  2111.02  2129.23  2156.05
                             2217.09  4601.69  4675.04  4684.90  4700.29
                             4706.74  4713.05  4713.84  4727.44  4727.78
                             4730.22  4734.91  4743.93  4747.87  4752.66
                             4764.70  4792.04  4842.11  4845.98  4853.28
                             4856.06  5596.28  5597.39

 Zero-point correction=                           0.371982 (Hartree/Particle)
 Thermal correction to Energy=                    0.390888
 Thermal correction to Enthalpy=                  0.391832
 Thermal correction to Gibbs Free Energy=         0.324791
 Sum of electronic and zero-point Energies=          -1297.612986
 Sum of electronic and thermal Energies=             -1297.594080
 Sum of electronic and thermal Enthalpies=           -1297.593136
 Sum of electronic and thermal Free Energies=        -1297.660176

                     E (Thermal)             CV                S
                      KCal/Mol        Cal/Mol-Kelvin    Cal/Mol-Kelvin
 Total                  245.286             77.153            141.099
 Electronic               0.000              0.000              0.000
 Translational            0.889              2.981             43.384
 Rotational               0.889              2.981             35.091
 Vibrational            243.508             71.191             62.624
 Vibration     1          0.594              1.984              5.793
 Vibration     2          0.595              1.980              5.058
 Vibration     3          0.596              1.976              4.628
 Vibration     4          0.599              1.965              3.968
 Vibration     5          0.604              1.951              3.492
 Vibration     6          0.608              1.934              3.128
 Vibration     7          0.621              1.893              2.564
 Vibration     8          0.627              1.874              2.388
 Vibration     9          0.635              1.850              2.200
 Vibration    10          0.651              1.799              1.900
 Vibration    11          0.658              1.778              1.799
 Vibration    12          0.677              1.719              1.561
 Vibration    13          0.681              1.708              1.526
 Vibration    14          0.697              1.660              1.377
 Vibration    15          0.699              1.654              1.362
 Vibration    16          0.704              1.641              1.325
 Vibration    17          0.709              1.627              1.288
 Vibration    18          0.716              1.605              1.235
 Vibration    19          0.730              1.567              1.147
 Vibration    20          0.743              1.531              1.073
 Vibration    21          0.761              1.483              0.984
 Vibration    22          0.777              1.443              0.917
 Vibration    23          0.786              1.418              0.879
 Vibration    24          0.801              1.379              0.821
 Vibration    25          0.812              1.354              0.787
 Vibration    26          0.843              1.278              0.691
 Vibration    27          0.859              1.242              0.649
 Vibration    28          0.868              1.221              0.627
 Vibration    29          0.902              1.146              0.551
 Vibration    30          0.937              1.074              0.485
 Vibration    31          0.955              1.038              0.455
 Vibration    32          0.971              1.006              0.429

 Normal termination of Gaussian 09 at Mon Mar 21 22:08:23 2016.
