 Gaussian 09, Revision B.01,
 Gaussian 09:  EM64L-G09RevB.01 12-Aug-2010

 ------------------------------------------------
 # freq=raman b3lyp/6-31+g(d,p) geom=connectivity
 ------------------------------------------------

 ------------
 290 6000.com
 ------------
 Symbolic Z-matrix:
 Charge =  0 Multiplicity = 1

                         Standard orientation:
 ---------------------------------------------------------------------
 Center     Atomic      Atomic             Coordinates (Angstroms)
 Number     Number       Type             X           Y           Z
 ---------------------------------------------------------------------
      1          8           0       -5.013816   -0.486108    0.475773
      2          6           0       -3.755649   -0.076486   -0.080244
      3          6           0       -3.252161    1.273425    0.403817
      4          8           0       -4.223351    2.217744   -0.070904
      5          1           0       -5.065957    1.982316    0.413500
      6          6           0       -1.842625    1.615595   -0.048993
      7          8           0       -1.228622    2.783476    0.514357
      8          1           0       -0.337964    2.916521    0.079063
      9          6           0       -2.972300   -2.490699   -0.262375
     10          8           0       -4.213216   -3.080966    0.152574
     11          1           0       -4.196416   -4.079237    0.191729
     12          6           0       -2.650404   -1.079938    0.202645
     13          8           0       -1.353245   -0.839608   -0.363152
     14          6           0       -0.921014    0.424372    0.161496
     15          8           0        0.259576    0.579024   -0.638726
     16          6           0        1.544630    0.172434   -0.145935
     17          6           0        2.026125   -1.206135   -0.567225
     18          8           0        1.000024   -2.193312   -0.384778
     19          1           0        0.071543   -1.913291   -0.629034
     20          6           0        3.256016   -1.514895    0.270889
     21          8           0        3.805901   -2.811524   -0.000615
     22          1           0        4.488473   -3.056419    0.688720
     23          6           0        2.339635    2.606743    0.123199
     24          8           0        1.301680    3.301820   -0.584897
     25          1           0        1.392491    4.280327   -0.401375
     26          6           0        2.624997    1.209648   -0.402089
     27          8           0        3.883703    0.895488    0.211235
     28          6           0        4.305454   -0.455389   -0.024717
     29          8           0        5.373303   -0.607754    0.922087
     30          1           0       -5.593522   -0.783678   -0.229204
     31          1           0        6.182596   -0.834143    0.457983
     32          1           0        4.675289   -0.562449   -1.023046
     33          1           0       -3.876608   -0.016012   -1.141664
     34          1           0       -3.271615    1.277219    1.473634
     35          1           0       -2.528669   -1.115897    1.265089
     36          1           0       -2.182693   -3.129431    0.074437
     37          1           0       -0.659575    0.330016    1.194766
     38          1           0       -1.895991    1.780728   -1.104826
     39          1           0        1.437752    0.124234    0.917622
     40          1           0        2.304690   -1.178708   -1.599964
     41          1           0        2.991532   -1.461255    1.306298
     42          1           0        2.775803    1.275451   -1.459362
     43          1           0        3.238688    3.183388    0.059289
     44          1           0        2.056198    2.530947    1.152188
     45          1           0       -2.957767   -2.488896   -1.332275
 ---------------------------------------------------------------------

 SCF Done:  E(RB3LYP) =  -1297.94274805     A.U. after   13 cycles

 The electronic state is 1-A.
 Alpha  occ. eigenvalues --  -19.20022 -19.19497 -19.18769 -19.18383 -19.18264
 Alpha  occ. eigenvalues --  -19.17714 -19.17126 -19.16710 -19.16011 -19.15331
 Alpha  occ. eigenvalues --  -19.14330 -10.31277 -10.30813 -10.26148 -10.25980
 Alpha  occ. eigenvalues --  -10.25550 -10.25512 -10.25445 -10.25433 -10.25377
 Alpha  occ. eigenvalues --  -10.25168 -10.25072 -10.24271  -1.10560  -1.09115
 Alpha  occ. eigenvalues --   -1.05371  -1.05122  -1.03746  -1.03414  -1.02621
 Alpha  occ. eigenvalues --   -1.02257  -1.02042  -1.00992  -1.00065  -0.82413
 Alpha  occ. eigenvalues --   -0.80958  -0.79747  -0.78367  -0.71793  -0.70119
 Alpha  occ. eigenvalues --   -0.67725  -0.64941  -0.63340  -0.62640  -0.61589
 Alpha  occ. eigenvalues --   -0.60352  -0.56358  -0.55808  -0.55113  -0.54858
 Alpha  occ. eigenvalues --   -0.54565  -0.53502  -0.52893  -0.52028  -0.51595
 Alpha  occ. eigenvalues --   -0.50729  -0.50351  -0.49430  -0.48588  -0.46755
 Alpha  occ. eigenvalues --   -0.45813  -0.45021  -0.44758  -0.43994  -0.43331
 Alpha  occ. eigenvalues --   -0.42286  -0.42158  -0.41672  -0.40617  -0.39949
 Alpha  occ. eigenvalues --   -0.39029  -0.37787  -0.37369  -0.35851  -0.35407
 Alpha  occ. eigenvalues --   -0.35088  -0.34875  -0.34049  -0.33592  -0.32989
 Alpha  occ. eigenvalues --   -0.32684  -0.31600  -0.30833  -0.30496  -0.29914
 Alpha  occ. eigenvalues --   -0.29491  -0.28637  -0.28512  -0.28122  -0.26749
 Alpha  occ. eigenvalues --   -0.26559
 Alpha virt. eigenvalues --   -0.01753  -0.01606  -0.01445  -0.00130   0.00383
 Alpha virt. eigenvalues --    0.00993   0.01865   0.02127   0.02732   0.03248
 Alpha virt. eigenvalues --    0.03558   0.04176   0.04608   0.05387   0.05706

 Mulliken atomic charges:
              1
     1  O   -0.516377
     2  C   -0.064746
     3  C    0.110504
     4  O   -0.492523
     5  H    0.357369
     6  C   -0.188241
     7  O   -0.540208
     8  H    0.442922
     9  C   -0.090927
    10  O   -0.602842
    11  H    0.374708
    12  C    0.214250
    13  O   -0.408016
    14  C    0.241150
    15  O   -0.346162
    16  C    0.027188
    17  C   -0.058499
    18  O   -0.522787
    19  H    0.421845
    20  C    0.030611
    21  O   -0.505043
    22  H    0.356323
    23  C    0.067904
    24  O   -0.623706
    25  H    0.385730
    26  C   -0.174186
    27  O   -0.284120
    28  C    0.280642
    29  O   -0.566045
    30  H    0.378424
    31  H    0.362587
    32  H    0.132549
    33  H    0.140549
    34  H    0.143031
    35  H    0.132143
    36  H    0.137534
    37  H    0.130226
    38  H    0.153186
    39  H    0.109802
    40  H    0.131985
    41  H    0.146564
    42  H    0.144300
    43  H    0.144426
    44  H    0.147074
    45  H    0.138904
 Sum of Mulliken atomic charges =   0.00000

 Dipole moment (field-independent basis, Debye):
    X=              2.1231    Y=             -0.4892    Z=             -0.6129  Tot=              2.2633
 Quadrupole moment (field-independent basis, Debye-Ang):
   XX=           -119.9181   YY=           -135.2944   ZZ=           -140.1006
   XY=             14.5834   XZ=              0.6755   YZ=             -1.5324

  Exact polarizability: 228.647  -0.932 192.477   1.175   0.127 142.205
 Approx polarizability: 266.435  -0.013 247.391   1.028  -0.315 232.330

 ******    7 imaginary frequencies (negative Signs) ******

                     1                      2                      3
                     A                      A                      A
 Frequencies --  -343.5127              -285.7776              -266.6584
 Red. masses --     1.1181                 1.1488                 1.7131
 Frc consts  --     0.0777                 0.0553                 0.0718
 IR Inten    --   121.7193               123.6289                 6.8298
 Raman Activ --     0.7749                 1.0562                 0.1320

                     4                      5                      6
                     A                      A                      A
 Frequencies --  -212.7796               -71.9521               -53.6926
 Red. masses --     1.8658                 6.8720                 6.2431
 Frc consts  --     0.0498                 0.0210                 0.0106
 IR Inten    --     5.3643                 1.1113                 0.1643
 Raman Activ --     0.0712                 0.0370                 0.0640

                     7                      8                      9
                     A                      A                      A
 Frequencies --   -26.2633                54.7077                66.1161
 Red. masses --     6.6131                 6.4883                 7.0220
 Frc consts  --     0.0027                 0.0114                 0.0181
 IR Inten    --     2.4017                 1.6586                 0.3949
 Raman Activ --     0.0176                 0.0272                 0.1270

                    10                     11                     12
                     A                      A                      A
 Frequencies --    87.3100                99.0243               108.7373
 Red. masses --     6.5827                 6.5380                 6.2544
 Frc consts  --     0.0296                 0.0378                 0.0436
 IR Inten    --     1.6645                 1.0939                 5.7185
 Raman Activ --     0.1801                 0.2266                 0.1561

                    13                     14                     15
                     A                      A                      A
 Frequencies --   146.6633               163.5272               200.5052
 Red. masses --     5.8695                 6.7758                 6.8471
 Frc consts  --     0.0744                 0.1068                 0.1622
 IR Inten    --     7.0175                 0.6578                 0.0802
 Raman Activ --     0.1613                 0.4313                 1.8809

                    16                     17                     18
                     A                      A                      A
 Frequencies --   205.1337               229.5434               262.2123
 Red. masses --     6.2371                 5.9210                 5.0420
 Frc consts  --     0.1546                 0.1838                 0.2042
 IR Inten    --     0.0927                 1.6435                10.4903
 Raman Activ --     0.6125                 1.1384                 0.5129

                    19                     20                     21
                     A                      A                      A
 Frequencies --   277.2042               292.7237               300.6975
 Red. masses --     5.0712                 5.8916                 5.7176
 Frc consts  --     0.2296                 0.2974                 0.3046
 IR Inten    --     2.6537                 2.7015                 7.2364
 Raman Activ --     0.0954                 0.2063                 0.1864

                    22                     23                     24
                     A                      A                      A
 Frequencies --   311.1454               318.0180               326.3079
 Red. masses --     5.2410                 5.3150                 6.9053
 Frc consts  --     0.2989                 0.3167                 0.4332
 IR Inten    --     9.3470                 2.3961                 9.1264
 Raman Activ --     0.1009                 1.7421                 2.5916

                    25                     26                     27
                     A                      A                      A
 Frequencies --   336.8590               354.1034               375.9413
 Red. masses --     6.3651                 4.8136                 5.8035
 Frc consts  --     0.4255                 0.3556                 0.4833
 IR Inten    --     6.5598                 7.5999                 0.9724
 Raman Activ --     4.3114                 0.0962                 0.7868

                    28                     29                     30
                     A                      A                      A
 Frequencies --   402.6810               411.0906               429.3879
 Red. masses --     4.4268                 6.0689                 4.3080
 Frc consts  --     0.4229                 0.6043                 0.4680
 IR Inten    --    17.2313                 4.7795                 1.2959
 Raman Activ --     3.9998                 3.8509                 3.6273

                    31                     32                     33
                     A                      A                      A
 Frequencies --   439.9818               476.1518               485.7129
 Red. masses --     6.3068                 3.9706                 3.9767
 Frc consts  --     0.7193                 0.5304                 0.5528
 IR Inten    --     2.4919                 4.2999                14.5911
 Raman Activ --     4.7368                 1.5936                 1.2398

                    34                     35                     36
                     A                      A                      A
 Frequencies --   504.8797               521.5001               556.7903
 Red. masses --     4.1202                 3.4882                 3.5766
 Frc consts  --     0.6188                 0.5589                 0.6533
 IR Inten    --    10.4180                 9.5766                27.0133
 Raman Activ --     1.3670                 6.2517                 1.4305

                    37                     38                     39
                     A                      A                      A
 Frequencies --   577.4001               597.2551               615.8878
 Red. masses --     2.6814                 6.4026                 4.0520
 Frc consts  --     0.5267                 1.3456                 0.9056
 IR Inten    --    30.9366                 3.7173                 2.2449
 Raman Activ --     0.3456                 0.8024                 0.4259

                    40                     41                     42
                     A                      A                      A
 Frequencies --   624.1810               637.2396               697.2967
 Red. masses --     1.4199                 2.3141                 1.2784
 Frc consts  --     0.3259                 0.5536                 0.3662
 IR Inten    --    66.1020               103.3209               157.7952
 Raman Activ --     1.5548                 1.6893                 2.7847

                    43                     44                     45
                     A                      A                      A
 Frequencies --   701.0447               707.0971               728.8147
 Red. masses --     2.3697                 1.1750                 1.1231
 Frc consts  --     0.6862                 0.3461                 0.3515
 IR Inten    --    30.6226                75.6762               112.8601
 Raman Activ --     1.9022                 3.5372                 1.6219

                    46                     47                     48
                     A                      A                      A
 Frequencies --   750.4028               848.9213               852.6737
 Red. masses --     1.0821                 1.4491                 1.6590
 Frc consts  --     0.3590                 0.6153                 0.7107
 IR Inten    --   150.4659                12.8818                12.5843
 Raman Activ --     2.2336                 0.8023                 0.6817

                    49                     50                     51
                     A                      A                      A
 Frequencies --   883.9098               934.9658               972.4455
 Red. masses --     1.2603                 5.5642                 5.5413
 Frc consts  --     0.5801                 2.8658                 3.0874
 IR Inten    --    53.8677                59.5006               138.8338
 Raman Activ --     0.3338                 2.9107                 1.0797

                    52                     53                     54
                     A                      A                      A
 Frequencies --   980.2023               987.6383              1000.8027
 Red. masses --     5.2145                 5.2196                 5.3994
 Frc consts  --     2.9519                 2.9997                 3.1863
 IR Inten    --    23.5776               128.5003               110.4339
 Raman Activ --     1.6522                 0.9564                 0.7826

                    55                     56                     57
                     A                      A                      A
 Frequencies --  1006.4766              1023.9410              1035.4393
 Red. masses --     5.0920                 5.2976                 4.9582
 Frc consts  --     3.0391                 3.2725                 3.1320
 IR Inten    --   246.6940                20.3286               113.5217
 Raman Activ --     2.2718                 1.2831                 3.8470

                    58                     59                     60
                     A                      A                      A
 Frequencies --  1053.0399              1063.9847              1071.4995
 Red. masses --     3.2065                 4.6273                 4.1654
 Frc consts  --     2.0949                 3.0864                 2.8177
 IR Inten    --   164.8384               318.7200                25.8100
 Raman Activ --     5.2529                 8.6604                 4.4846

                    61                     62                     63
                     A                      A                      A
 Frequencies --  1079.4629              1082.5180              1088.3347
 Red. masses --     3.1172                 3.9348                 5.9570
 Frc consts  --     2.1401                 2.7167                 4.1572
 IR Inten    --    50.2384                14.7605                63.8730
 Raman Activ --     6.3604                 2.1718                 0.8576

                    64                     65                     66
                     A                      A                      A
 Frequencies --  1097.7089              1103.5593              1109.9916
 Red. masses --     2.4983                 2.7511                 2.6728
 Frc consts  --     1.7736                 1.9740                 1.9402
 IR Inten    --    21.8997               182.9631                 8.4194
 Raman Activ --    19.7020                 3.3344                 8.6633

                    67                     68                     69
                     A                      A                      A
 Frequencies --  1121.1541              1140.5879              1142.6771
 Red. masses --     3.6397                 2.5973                 2.7307
 Frc consts  --     2.6956                 1.9908                 2.1007
 IR Inten    --    34.8240                 5.2236                14.0761
 Raman Activ --    10.7494                 1.9747                 3.0758

                    70                     71                     72
                     A                      A                      A
 Frequencies --  1152.2200              1158.7803              1165.2721
 Red. masses --     2.5105                 1.9765                 2.1308
 Frc consts  --     1.9637                 1.5637                 1.7047
 IR Inten    --    47.6187                23.6537                11.0735
 Raman Activ --     6.8026                 2.1594                 2.6637

                    73                     74                     75
                     A                      A                      A
 Frequencies --  1171.5656              1178.0594              1195.9366
 Red. masses --     1.8531                 2.1205                 1.6750
 Frc consts  --     1.4986                 1.7339                 1.4115
 IR Inten    --    22.5715                15.1279                 2.2328
 Raman Activ --     7.3467                 2.2976                 3.1075

                    76                     77                     78
                     A                      A                      A
 Frequencies --  1205.2250              1212.8733              1227.8242
 Red. masses --     1.4111                 1.2526                 1.2393
 Frc consts  --     1.2076                 1.0856                 1.1008
 IR Inten    --    17.5589                16.9006                 0.2773
 Raman Activ --     2.9157                 1.7230                 1.9036

                    79                     80                     81
                     A                      A                      A
 Frequencies --  1235.1790              1242.1541              1254.9970
 Red. masses --     1.2674                 1.2210                 1.2871
 Frc consts  --     1.1392                 1.1100                 1.1944
 IR Inten    --     9.8991                20.7403                11.0896
 Raman Activ --     1.3149                 2.4717                 1.5140

                    82                     83                     84
                     A                      A                      A
 Frequencies --  1271.4873              1278.1595              1282.4577
 Red. masses --     1.3741                 1.2032                 1.1792
 Frc consts  --     1.3089                 1.1582                 1.1427
 IR Inten    --    32.7846                20.7680                 4.8123
 Raman Activ --     2.2907                 2.6576                 2.7267

                    85                     86                     87
                     A                      A                      A
 Frequencies --  1290.0207              1300.6606              1303.6620
 Red. masses --     1.3533                 1.3698                 1.2287
 Frc consts  --     1.3269                 1.3653                 1.2303
 IR Inten    --     1.1335                25.7367                47.0800
 Raman Activ --     2.6728                 3.7551                 5.7178

                    88                     89                     90
                     A                      A                      A
 Frequencies --  1314.6080              1321.6212              1327.5607
 Red. masses --     1.2477                 1.2746                 1.2580
 Frc consts  --     1.2704                 1.3117                 1.3062
 IR Inten    --     9.2196                41.7757                19.6047
 Raman Activ --     3.2477                 3.8733                 4.6139

                    91                     92                     93
                     A                      A                      A
 Frequencies --  1332.3948              1337.5324              1343.4692
 Red. masses --     1.2871                 1.2533                 1.3498
 Frc consts  --     1.3463                 1.3210                 1.4354
 IR Inten    --    22.4816                14.6010                70.2743
 Raman Activ --     8.9411                 4.1913                 4.3170

                    94                     95                     96
                     A                      A                      A
 Frequencies --  1356.5965              1370.8997              1378.2971
 Red. masses --     1.2123                 1.4758                 1.5334
 Frc consts  --     1.3145                 1.6342                 1.7163
 IR Inten    --    13.2149                 3.1934                 4.6364
 Raman Activ --     3.9919                 3.8006                11.5174

                    97                     98                     99
                     A                      A                      A
 Frequencies --  1388.0943              1399.3834              1403.1882
 Red. masses --     1.4988                 1.4240                 1.4301
 Frc consts  --     1.7015                 1.6430                 1.6590
 IR Inten    --     7.9454                26.9824                 0.7841
 Raman Activ --     6.4654                 5.8621                 6.1663

                   100                    101                    102
                     A                      A                      A
 Frequencies --  1414.8477              1429.5232              1433.2928
 Red. masses --     1.2776                 1.4956                 1.4666
 Frc consts  --     1.5068                 1.8007                 1.7752
 IR Inten    --     8.5010                 9.5870                29.1147
 Raman Activ --     4.7585                 1.0079                 1.9654

                   103                    104                    105
                     A                      A                      A
 Frequencies --  1449.5560              1457.3205              1480.8179
 Red. masses --     1.3941                 1.4159                 1.0806
 Frc consts  --     1.7259                 1.7717                 1.3962
 IR Inten    --    37.0731                 6.0008                 2.7159
 Raman Activ --     1.4608                 1.1231                 4.5170

                   106                    107                    108
                     A                      A                      A
 Frequencies --  1482.3018              1488.8855              3267.5150
 Red. masses --     1.0820                 1.3297                 1.0579
 Frc consts  --     1.4007                 1.7367                 6.6545
 IR Inten    --     2.4631                37.5272                21.6367
 Raman Activ --     5.0500                 1.0938                99.3384

                   109                    110                    111
                     A                      A                      A
 Frequencies --  3269.3957              3274.2132              3278.1964
 Red. masses --     1.0627                 1.0812                 1.0824
 Frc consts  --     6.6925                 6.8292                 6.8533
 IR Inten    --   324.9538                25.7889                 9.2618
 Raman Activ --    20.1115                53.5314                24.2665

                   112                    113                    114
                     A                      A                      A
 Frequencies --  3282.9411              3284.8308              3288.2640
 Red. masses --     1.0709                 1.0809                 1.0811
 Frc consts  --     6.8004                 6.8716                 6.8874
 IR Inten    --   295.7921                 8.0551                65.9278
 Raman Activ --   337.3731                87.4257                64.1875

                   115                    116                    117
                     A                      A                      A
 Frequencies --  3294.6350              3295.4317              3299.6450
 Red. masses --     1.0840                 1.0834                 1.0854
 Frc consts  --     6.9323                 6.9322                 6.9624
 IR Inten    --    11.8871                62.3132                 2.6943
 Raman Activ --     6.2000                92.1588               115.0856

                   118                    119                    120
                     A                      A                      A
 Frequencies --  3301.5654              3312.3562              3314.5815
 Red. masses --     1.0856                 1.0869                 1.0870
 Frc consts  --     6.9723                 7.0258                 7.0361
 IR Inten    --     3.6304                66.8615               116.1075
 Raman Activ --    40.2958                15.8499                10.6494

                   121                    122                    123
                     A                      A                      A
 Frequencies --  3324.2894              3336.9421              3338.7690
 Red. masses --     1.1061                 1.1086                 1.0690
 Frc consts  --     7.2020                 7.2732                 7.0213
 IR Inten    --    51.4472                49.4380               622.0916
 Raman Activ --    27.1686                51.7686               157.1078

                   124                    125                    126
                     A                      A                      A
 Frequencies --  3387.5795              3393.0672              3397.9638
 Red. masses --     1.0667                 1.0656                 1.0687
 Frc consts  --     7.2124                 7.2281                 7.2700
 IR Inten    --    44.5651                38.1759                44.2751
 Raman Activ --   144.1955               102.4144               198.6260

                   127                    128                    129
                     A                      A                      A
 Frequencies --  3399.2221              3920.8343              3923.1642
 Red. masses --     1.0671                 1.0675                 1.0677
 Frc consts  --     7.2643                 9.6692                 9.6825
 IR Inten    --    51.0183                71.1482                89.0497
 Raman Activ --   144.7391               120.6067                85.2707

 - Thermochemistry -
 -------------------
 Temperature   298.150 Kelvin.  Pressure   1.00000 Atm.
 Atom     1 has atomic number  8 and mass  15.99491

 Molecular mass:   342.11621 amu.
 Principal axes and moments of inertia in atomic units:
                           1         2         3
     Eigenvalues --  4417.44871********************
           X            0.99997   0.00732   0.00014
           Y           -0.00732   0.99997   0.00122
           Z           -0.00013  -0.00122   1.00000
 This molecule is an asymmetric top.
 Rotational symmetry number  1.
 Warning -- assumption of classical behavior for rotation
           may cause significant error
 Rotational temperatures (Kelvin)      0.01961     0.00706     0.00535
 Rotational constants (GHZ):           0.40855     0.14713     0.11155
    7 imaginary frequencies ignored.
 Zero-point vibrational energy     976663.2 (Joules/Mol)
                                  233.42811 (Kcal/Mol)
 Warning -- explicit consideration of  32 degrees of freedom as
           vibrations may cause significant error
 Vibrational temperatures:     78.71    95.13   125.62   142.47   156.45
          (Kelvin)            211.02   235.28   288.48   295.14   330.26
                              377.26   398.83   421.16   432.64   447.67
                              457.56   469.48   484.66   509.48   540.89
                              579.37   591.47   617.79   633.03   685.08
                              698.83   726.41   750.32   801.10   830.75
                              859.32   886.12   898.06   916.84  1003.25
                             1008.65  1017.35  1048.60  1079.66  1221.41
                             1226.81  1271.75  1345.21  1399.13  1410.29
                             1420.99  1439.93  1448.09  1473.22  1489.76
                             1515.09  1530.83  1541.65  1553.10  1557.50
                             1565.87  1579.36  1587.77  1597.03  1613.09
                             1641.05  1644.06  1657.79  1667.22  1676.56
                             1685.62  1694.96  1720.68  1734.05  1745.05
                             1766.56  1777.14  1787.18  1805.66  1829.38
                             1838.98  1845.17  1856.05  1871.36  1875.68
                             1891.43  1901.52  1910.06  1917.02  1924.41
                             1932.95  1951.84  1972.42  1983.06  1997.16
                             2013.40  2018.87  2035.65  2056.76  2062.19
                             2085.59  2096.76  2130.56  2132.70  2142.17
                             4701.22  4703.93  4710.86  4716.59  4723.41
                             4726.13  4731.07  4740.24  4741.39  4747.45
                             4750.21  4765.74  4768.94  4782.91  4801.11
                             4803.74  4873.97  4881.86  4888.91  4890.72
                             5641.20  5644.55

 Zero-point correction=                           0.371991 (Hartree/Particle)
 Thermal correction to Energy=                    0.390372
 Thermal correction to Enthalpy=                  0.391316
 Thermal correction to Gibbs Free Energy=         0.326641
 Sum of electronic and zero-point Energies=          -1297.570757
 Sum of electronic and thermal Energies=             -1297.552376
 Sum of electronic and thermal Enthalpies=           -1297.551432
 Sum of electronic and thermal Free Energies=        -1297.616107

                     E (Thermal)             CV                S
                      KCal/Mol        Cal/Mol-Kelvin    Cal/Mol-Kelvin
 Total                  244.962             76.076            136.120
 Electronic               0.000              0.000              0.000
 Translational            0.889              2.981             43.384
 Rotational               0.889              2.981             35.126
 Vibrational            243.185             70.115             57.609
 Vibration     1          0.596              1.976              4.640
 Vibration     2          0.598              1.970              4.266
 Vibration     3          0.601              1.958              3.719
 Vibration     4          0.604              1.950              3.473
 Vibration     5          0.606              1.942              3.291
 Vibration     6          0.617              1.906              2.715
 Vibration     7          0.623              1.887              2.509
 Vibration     8          0.638              1.839              2.128
 Vibration     9          0.640              1.833              2.087
 Vibration    10          0.652              1.796              1.883
 Vibration    11          0.670              1.742              1.647
 Vibration    12          0.678              1.716              1.551
 Vibration    13          0.688              1.687              1.458
 Vibration    14          0.693              1.672              1.413
 Vibration    15          0.700              1.652              1.356
 Vibration    16          0.704              1.639              1.320
 Vibration    17          0.710              1.623              1.278
 Vibration    18          0.718              1.602              1.227
 Vibration    19          0.730              1.567              1.148
 Vibration    20          0.747              1.521              1.055
 Vibration    21          0.768              1.464              0.953
 Vibration    22          0.775              1.446              0.923
 Vibration    23          0.791              1.406              0.861
 Vibration    24          0.800              1.383              0.827
 Vibration    25          0.833              1.303              0.721
 Vibration    26          0.842              1.282              0.695
 Vibration    27          0.860              1.239              0.646
 Vibration    28          0.876              1.202              0.606
 Vibration    29          0.912              1.125              0.530
 Vibration    30          0.934              1.080              0.490
 Vibration    31          0.955              1.038              0.454
 Vibration    32          0.975              0.998              0.423

 Normal termination of Gaussian 09 at Thu Jan 21 05:08:03 2016.
