 Gaussian 09, Revision B.01,
 Gaussian 09:  EM64L-G09RevB.01 12-Aug-2010

 -------------------------------------------------
 # freq=raman b3lyp/6-31+g(2d,p) geom=connectivity
 -------------------------------------------------

 -----------------
 423 7000/7000.com
 -----------------
 Symbolic Z-matrix:
 Charge =  0 Multiplicity = 1

                         Standard orientation:
 ---------------------------------------------------------------------
 Center     Atomic      Atomic             Coordinates (Angstroms)
 Number     Number       Type             X           Y           Z
 ---------------------------------------------------------------------
      1          8           0       -5.042345   -0.282097    0.317158
      2          6           0       -3.720425    0.011136   -0.155268
      3          6           0       -3.160482    1.320027    0.378670
      4          8           0       -4.103230    2.350137    0.048305
      5          1           0       -5.057959    2.071805   -0.057983
      6          6           0       -1.741637    1.548962   -0.115189
      7          8           0       -1.080515    2.626253    0.563189
      8          1           0       -0.156902    2.724008    0.192858
      9          6           0       -3.153704   -2.493089   -0.235980
     10          8           0       -4.354068   -3.141007    0.208867
     11          1           0       -4.208527   -4.126800    0.117954
     12          6           0       -2.724807   -1.091277    0.166660
     13          8           0       -1.456380   -0.811355   -0.443353
     14          6           0       -0.852201    0.345201    0.152924
     15          8           0        0.342183    0.497678   -0.627780
     16          6           0        1.506246    0.214029    0.161979
     17          6           0        1.932556   -1.181083   -0.264508
     18          8           0        0.999057   -2.226935    0.044087
     19          1           0        0.126255   -1.916375   -0.332934
     20          6           0        3.309478   -1.599262    0.227087
     21          8           0        3.732452   -2.748798   -0.520533
     22          1           0        4.704208   -2.960678   -0.416528
     23          6           0        2.382604    2.648733   -0.177991
     24          8           0        1.253215    3.401410   -0.643764
     25          1           0        1.470643    4.374976   -0.566146
     26          6           0        2.644193    1.151514   -0.205502
     27          8           0        3.791602    0.782156    0.573642
     28          6           0        4.268080   -0.442350   -0.003019
     29          8           0        5.442770   -0.683376    0.786159
     30          1           0        6.188695   -0.852997    0.206139
     31          1           0        4.508358   -0.324259   -1.038983
     32          1           0        3.267944   -1.836935    1.269530
     33          1           0        1.997646   -1.150610   -1.332091
     34          1           0        1.288395    0.252315    1.208867
     35          1           0        2.891626    0.922480   -1.220993
     36          1           0        2.471517    2.914894    0.854555
     37          1           0        3.216814    3.073604   -0.696140
     38          1           0       -5.620451   -0.446849   -0.431340
     39          1           0       -2.348075   -3.140061    0.042027
     40          1           0       -3.196259   -2.493608   -1.305134
     41          1           0       -2.580123   -1.092224    1.226832
     42          1           0       -3.773537    0.095390   -1.220622
     43          1           0       -3.122284    1.246484    1.445456
     44          1           0       -1.759970    1.749536   -1.166062
     45          1           0       -0.645346    0.208122    1.193751
 ---------------------------------------------------------------------

 SCF Done:  E(RB3LYP) =  -1297.96563226     A.U. after   13 cycles

 The electronic state is 1-A.
 Alpha  occ. eigenvalues --  -19.18995 -19.18796 -19.18424 -19.18399 -19.17872
 Alpha  occ. eigenvalues --  -19.16842 -19.16399 -19.16175 -19.14446 -19.14290
 Alpha  occ. eigenvalues --  -19.13388 -10.30868 -10.30382 -10.26684 -10.25655
 Alpha  occ. eigenvalues --  -10.25501 -10.25385 -10.24852 -10.24773 -10.24316
 Alpha  occ. eigenvalues --  -10.24122 -10.23977 -10.23938  -1.10551  -1.09820
 Alpha  occ. eigenvalues --   -1.05657  -1.05207  -1.04227  -1.03747  -1.02864
 Alpha  occ. eigenvalues --   -1.02526  -1.01455  -1.00758  -0.99981  -0.82207
 Alpha  occ. eigenvalues --   -0.80290  -0.79296  -0.78102  -0.72304  -0.69976
 Alpha  occ. eigenvalues --   -0.67144  -0.65410  -0.63569  -0.62376  -0.61935
 Alpha  occ. eigenvalues --   -0.60551  -0.56616  -0.55693  -0.55313  -0.54660
 Alpha  occ. eigenvalues --   -0.53825  -0.53491  -0.53020  -0.52137  -0.51416
 Alpha  occ. eigenvalues --   -0.50708  -0.50050  -0.49235  -0.48744  -0.46997
 Alpha  occ. eigenvalues --   -0.46333  -0.45567  -0.44207  -0.43793  -0.43156
 Alpha  occ. eigenvalues --   -0.42627  -0.41981  -0.41251  -0.40353  -0.39710
 Alpha  occ. eigenvalues --   -0.38947  -0.38170  -0.37123  -0.36895  -0.35700
 Alpha  occ. eigenvalues --   -0.35519  -0.34995  -0.34504  -0.33744  -0.33174
 Alpha  occ. eigenvalues --   -0.32806  -0.31193  -0.30650  -0.30510  -0.30107
 Alpha  occ. eigenvalues --   -0.29096  -0.28843  -0.28431  -0.27467  -0.26864
 Alpha  occ. eigenvalues --   -0.26214
 Alpha virt. eigenvalues --   -0.02572  -0.02437  -0.01954  -0.00337   0.00235
 Alpha virt. eigenvalues --    0.01007   0.01997   0.02339   0.03397   0.03597
 Alpha virt. eigenvalues --    0.03648   0.04348   0.04894   0.05324   0.05685

 Mulliken atomic charges:
              1
     1  O   -0.529401
     2  C   -0.184375
     3  C    0.202136
     4  O   -0.570646
     5  H    0.342206
     6  C    0.055520
     7  O   -0.566078
     8  H    0.408482
     9  C   -0.274772
    10  O   -0.520611
    11  H    0.339271
    12  C    0.318956
    13  O   -0.266291
    14  C    0.068241
    15  O   -0.214118
    16  C    0.213382
    17  C    0.126699
    18  O   -0.570155
    19  H    0.371562
    20  C    0.154343
    21  O   -0.540463
    22  H    0.328244
    23  C   -0.470344
    24  O   -0.548136
    25  H    0.362073
    26  C    0.209296
    27  O   -0.258827
    28  C    0.028461
    29  O   -0.524597
    30  H    0.330094
    31  H    0.138622
    32  H    0.138401
    33  H    0.125442
    34  H    0.119519
    35  H    0.111843
    36  H    0.156375
    37  H    0.142460
    38  H    0.343800
    39  H    0.142718
    40  H    0.139897
    41  H    0.108279
    42  H    0.118466
    43  H    0.121756
    44  H    0.132493
    45  H    0.139777
 Sum of Mulliken atomic charges =   0.00000

 Dipole moment (field-independent basis, Debye):
    X=              3.1723    Y=             -0.1423    Z=             -3.0796  Tot=              4.4236
 Quadrupole moment (field-independent basis, Debye-Ang):
   XX=           -116.6310   YY=           -135.7022   ZZ=           -141.1416
   XY=             13.7467   XZ=              0.1046   YZ=             -2.1491

  Exact polarizability: 232.945  -1.200 197.269   0.998   0.205 143.231
 Approx polarizability: 273.974  -0.776 256.118   2.102   0.663 240.766

 ******    6 imaginary frequencies (negative Signs) ******

                     1                      2                      3
                     A                      A                      A
 Frequencies --  -368.0452              -327.9636              -272.0965
 Red. masses --     1.6610                 1.6621                 1.1973
 Frc consts  --     0.1326                 0.1053                 0.0522
 IR Inten    --     2.9178                 5.0468               100.0623
 Raman Activ --     0.0263                 0.0815                 0.9587

                     4                      5                      6
                     A                      A                      A
 Frequencies --  -221.2131               -56.6327               -42.6395
 Red. masses --     1.1877                 7.2940                 6.3432
 Frc consts  --     0.0342                 0.0138                 0.0068
 IR Inten    --   105.3712                 2.4036                 0.3930
 Raman Activ --     0.8521                 0.0165                 0.0441

                     7                      8                      9
                     A                      A                      A
 Frequencies --    16.6485                52.7278                59.7086
 Red. masses --     6.2619                 6.8626                 6.9373
 Frc consts  --     0.0010                 0.0112                 0.0146
 IR Inten    --     2.2219                 0.2866                 2.4885
 Raman Activ --     0.0399                 0.1124                 0.0275

                    10                     11                     12
                     A                      A                      A
 Frequencies --    85.6443                97.8366               139.9576
 Red. masses --     6.9613                 6.7236                 6.0494
 Frc consts  --     0.0301                 0.0379                 0.0698
 IR Inten    --     0.3553                 0.3051                 0.5523
 Raman Activ --     0.1686                 0.1171                 0.1625

                    13                     14                     15
                     A                      A                      A
 Frequencies --   159.1331               172.8460               197.5394
 Red. masses --     6.1599                 6.9842                 6.2882
 Frc consts  --     0.0919                 0.1229                 0.1446
 IR Inten    --     6.7977                 0.5808                 1.9012
 Raman Activ --     0.2316                 0.3452                 1.8627

                    16                     17                     18
                     A                      A                      A
 Frequencies --   215.9514               228.8198               271.5999
 Red. masses --     5.7477                 6.8285                 4.4951
 Frc consts  --     0.1579                 0.2107                 0.1954
 IR Inten    --     0.1404                 3.4386                23.5070
 Raman Activ --     0.1099                 1.3663                 0.4461

                    19                     20                     21
                     A                      A                      A
 Frequencies --   289.8843               299.4508               307.3613
 Red. masses --     5.3956                 4.8567                 6.5945
 Frc consts  --     0.2671                 0.2566                 0.3671
 IR Inten    --     3.4746                 0.1156                 5.7729
 Raman Activ --     0.3270                 1.0817                 2.0097

                    22                     23                     24
                     A                      A                      A
 Frequencies --   308.9221               317.9162               321.5621
 Red. masses --     5.0082                 5.6300                 5.1872
 Frc consts  --     0.2816                 0.3353                 0.3160
 IR Inten    --     1.3612                 2.1839                 2.7682
 Raman Activ --     0.1667                 1.5690                 4.1497

                    25                     26                     27
                     A                      A                      A
 Frequencies --   334.0368               365.3250               385.1558
 Red. masses --     6.6263                 4.3371                 8.2246
 Frc consts  --     0.4356                 0.3410                 0.7188
 IR Inten    --    10.8335                 3.3804                 1.8239
 Raman Activ --     2.5055                 0.4587                 2.3772

                    28                     29                     30
                     A                      A                      A
 Frequencies --   412.9445               426.4541               431.2866
 Red. masses --     6.6629                 5.2287                 3.9284
 Frc consts  --     0.6694                 0.5603                 0.4305
 IR Inten    --     4.8359                 6.5758                15.6657
 Raman Activ --     3.8499                 0.8602                 1.5919

                    31                     32                     33
                     A                      A                      A
 Frequencies --   438.1192               478.5612               495.2635
 Red. masses --     5.0860                 4.2405                 5.7578
 Frc consts  --     0.5752                 0.5722                 0.8321
 IR Inten    --     6.3327                12.5158                 6.4001
 Raman Activ --     4.2949                 2.2480                 0.7982

                    34                     35                     36
                     A                      A                      A
 Frequencies --   516.0360               532.3108               564.8814
 Red. masses --     3.2327                 2.9764                 3.8661
 Frc consts  --     0.5072                 0.4969                 0.7268
 IR Inten    --    21.8359                15.3087                10.7827
 Raman Activ --     4.8563                 1.9954                 1.4525

                    37                     38                     39
                     A                      A                      A
 Frequencies --   594.8065               602.5061               619.4298
 Red. masses --     4.5581                 3.1091                 4.4410
 Frc consts  --     0.9501                 0.6650                 1.0040
 IR Inten    --     8.8900                33.8050                28.6128
 Raman Activ --     0.8301                 0.5360                 2.3911

                    40                     41                     42
                     A                      A                      A
 Frequencies --   630.3558               658.7740               690.3346
 Red. masses --     3.7994                 1.2850                 1.4840
 Frc consts  --     0.8895                 0.3286                 0.4167
 IR Inten    --    15.2707                55.6862                54.9754
 Raman Activ --     0.4286                 1.9108                 1.5556

                    43                     44                     45
                     A                      A                      A
 Frequencies --   694.2179               700.3855               717.0815
 Red. masses --     2.0151                 1.1220                 1.0780
 Frc consts  --     0.5722                 0.3243                 0.3266
 IR Inten    --    73.5069                87.9218               130.3385
 Raman Activ --     1.4151                 1.9217                 1.6486

                    46                     47                     48
                     A                      A                      A
 Frequencies --   827.8549               836.6076               843.4362
 Red. masses --     1.1309                 1.1367                 1.6201
 Frc consts  --     0.4567                 0.4687                 0.6790
 IR Inten    --   109.1427                93.8967                10.4861
 Raman Activ --     0.7248                 2.5701                 0.6701

                    49                     50                     51
                     A                      A                      A
 Frequencies --   872.8793               936.7614               956.2906
 Red. masses --     1.8038                 5.8364                 4.9415
 Frc consts  --     0.8097                 3.0176                 2.6625
 IR Inten    --    12.2502               137.1113                32.7134
 Raman Activ --     1.2218                 3.5327                 0.8925

                    52                     53                     54
                     A                      A                      A
 Frequencies --   977.9653               979.9764               990.7034
 Red. masses --     4.5517                 5.7291                 6.1448
 Frc consts  --     2.5649                 3.2417                 3.5534
 IR Inten    --   229.2203                27.4019                27.3526
 Raman Activ --     1.8958                 3.9237                 1.1049

                    55                     56                     57
                     A                      A                      A
 Frequencies --  1000.0401              1004.3743              1013.9974
 Red. masses --     5.5440                 7.3980                 6.0716
 Frc consts  --     3.2667                 4.3970                 3.6782
 IR Inten    --   139.1534               357.6097               107.8245
 Raman Activ --     1.7539                 1.3120                 2.9246

                    58                     59                     60
                     A                      A                      A
 Frequencies --  1033.0015              1043.2492              1066.2803
 Red. masses --     7.0251                 7.0091                 2.7991
 Frc consts  --     4.4168                 4.4946                 1.8751
 IR Inten    --   245.4683                85.0623                 5.8637
 Raman Activ --     2.7503                 0.8286                12.3117

                    61                     62                     63
                     A                      A                      A
 Frequencies --  1067.9145              1077.9253              1081.9705
 Red. masses --     5.1516                 4.9259                 3.1769
 Frc consts  --     3.4615                 3.3722                 2.1912
 IR Inten    --    45.0395                21.8247                 0.8170
 Raman Activ --     2.0014                 2.0893                10.5749

                    64                     65                     66
                     A                      A                      A
 Frequencies --  1096.9759              1102.7876              1109.6693
 Red. masses --     2.7332                 2.2862                 3.2765
 Frc consts  --     1.9378                 1.6382                 2.3771
 IR Inten    --   122.3868                 7.5849                49.2070
 Raman Activ --    10.6281                12.1184                 1.2726

                    67                     68                     69
                     A                      A                      A
 Frequencies --  1111.1021              1124.9495              1126.4517
 Red. masses --     3.4827                 2.6989                 2.7459
 Frc consts  --     2.5333                 2.0124                 2.0529
 IR Inten    --    23.5285                 0.8977                35.3247
 Raman Activ --     6.4272                 7.1133                 9.8789

                    70                     71                     72
                     A                      A                      A
 Frequencies --  1141.1896              1144.0488              1164.0052
 Red. masses --     3.0321                 1.4624                 1.6865
 Frc consts  --     2.3265                 1.1277                 1.3463
 IR Inten    --    53.4012                 0.5783                 9.5272
 Raman Activ --     6.0928                 2.7456                 1.4314

                    73                     74                     75
                     A                      A                      A
 Frequencies --  1180.1942              1185.6672              1200.2164
 Red. masses --     2.4999                 1.9539                 1.9421
 Frc consts  --     2.0515                 1.6184                 1.6483
 IR Inten    --     9.0598                 0.3367                21.1518
 Raman Activ --     3.4337                 1.2941                 1.6478

                    76                     77                     78
                     A                      A                      A
 Frequencies --  1216.0577              1221.7831              1222.8154
 Red. masses --     1.2788                 1.3552                 1.4572
 Frc consts  --     1.1142                 1.1919                 1.2838
 IR Inten    --     8.1970                 8.5877                 8.8690
 Raman Activ --     1.3813                 1.1224                 3.4116

                    79                     80                     81
                     A                      A                      A
 Frequencies --  1245.0176              1250.5414              1257.1759
 Red. masses --     1.2539                 1.2261                 1.4023
 Frc consts  --     1.1452                 1.1297                 1.3058
 IR Inten    --    10.9842                38.3327                44.9215
 Raman Activ --     0.5758                 0.9115                 2.1945

                    82                     83                     84
                     A                      A                      A
 Frequencies --  1274.6259              1284.9500              1287.2985
 Red. masses --     1.1858                 1.3422                 1.2358
 Frc consts  --     1.1351                 1.3057                 1.2066
 IR Inten    --    12.2250                20.2378                86.5924
 Raman Activ --     3.8941                 3.6308                 3.6821

                    85                     86                     87
                     A                      A                      A
 Frequencies --  1304.9029              1310.8808              1321.7631
 Red. masses --     1.3142                 1.3631                 1.2542
 Frc consts  --     1.3185                 1.3801                 1.2910
 IR Inten    --    12.6654                11.1502                 9.1722
 Raman Activ --     3.7098                 1.0286                 7.0812

                    88                     89                     90
                     A                      A                      A
 Frequencies --  1327.4966              1337.3910              1340.7640
 Red. masses --     1.1793                 1.2074                 1.2462
 Frc consts  --     1.2245                 1.2724                 1.3200
 IR Inten    --     3.2536                12.7145                48.8612
 Raman Activ --     8.8791                 9.8431                 3.5763

                    91                     92                     93
                     A                      A                      A
 Frequencies --  1344.2473              1351.1564              1361.7112
 Red. masses --     1.1974                 1.2381                 1.1250
 Frc consts  --     1.2749                 1.3317                 1.2290
 IR Inten    --    13.3380                 9.6214                36.6730
 Raman Activ --     1.6004                 0.8951                 3.7448

                    94                     95                     96
                     A                      A                      A
 Frequencies --  1362.8302              1371.2676              1377.4484
 Red. masses --     1.3327                 1.4726                 1.3220
 Frc consts  --     1.4583                 1.6315                 1.4779
 IR Inten    --     2.7416                26.8248                19.1945
 Raman Activ --     3.1233                 1.4423                 7.4267

                    97                     98                     99
                     A                      A                      A
 Frequencies --  1387.6761              1396.9807              1402.6961
 Red. masses --     1.5473                 1.5726                 1.4428
 Frc consts  --     1.7555                 1.8082                 1.6725
 IR Inten    --    18.6525                31.3743                 4.9080
 Raman Activ --     4.7868                 2.5505                 2.6783

                   100                    101                    102
                     A                      A                      A
 Frequencies --  1404.6723              1424.4300              1463.5046
 Red. masses --     1.3198                 1.2623                 1.1595
 Frc consts  --     1.5343                 1.5091                 1.4632
 IR Inten    --     3.2575                 4.8964                31.3937
 Raman Activ --     8.2234                 2.8539                 3.8530

                   103                    104                    105
                     A                      A                      A
 Frequencies --  1467.3568              1473.8950              1479.2952
 Red. masses --     1.0883                 1.2300                 1.3394
 Frc consts  --     1.3806                 1.5743                 1.7269
 IR Inten    --     6.0919                21.3699                17.2855
 Raman Activ --     5.5351                 2.1102                 0.7768

                   106                    107                    108
                     A                      A                      A
 Frequencies --  1485.0293              1511.7144              3248.0353
 Red. masses --     1.3133                 1.2939                 1.0608
 Frc consts  --     1.7064                 1.7421                 6.5935
 IR Inten    --     4.4044                35.0722                82.8855
 Raman Activ --     0.6586                 1.1544                71.3304

                   109                    110                    111
                     A                      A                      A
 Frequencies --  3249.1277              3251.6801              3263.2731
 Red. masses --     1.0802                 1.0591                 1.0816
 Frc consts  --     6.7188                 6.5975                 6.7862
 IR Inten    --    24.7452                29.3900                13.1554
 Raman Activ --    10.0850                96.9242                36.0521

                   112                    113                    114
                     A                      A                      A
 Frequencies --  3271.1841              3271.7137              3282.1395
 Red. masses --     1.0820                 1.0817                 1.0781
 Frc consts  --     6.8218                 6.8219                 6.8428
 IR Inten    --     8.0462                 8.2077               268.1226
 Raman Activ --   174.2373                61.0322               147.7787

                   115                    116                    117
                     A                      A                      A
 Frequencies --  3287.2457              3288.8124              3291.5551
 Red. masses --     1.0784                 1.0858                 1.0852
 Frc consts  --     6.8659                 6.9194                 6.9275
 IR Inten    --   212.2980                 6.6333                33.5480
 Raman Activ --    95.0027               111.7095                36.8276

                   118                    119                    120
                     A                      A                      A
 Frequencies --  3297.9053              3302.2430              3303.7622
 Red. masses --     1.0867                 1.1008                 1.0958
 Frc consts  --     6.9638                 7.0723                 7.0471
 IR Inten    --    23.3351                50.6336                 1.9548
 Raman Activ --    14.5752                29.0970                43.6073

                   121                    122                    123
                     A                      A                      A
 Frequencies --  3306.3854              3308.4896              3314.0851
 Red. masses --     1.0924                 1.0802                 1.0755
 Frc consts  --     7.0363                 6.9667                 6.9596
 IR Inten    --    15.6068               352.5177               336.8622
 Raman Activ --    43.4673                29.3455               134.6785

                   124                    125                    126
                     A                      A                      A
 Frequencies --  3360.6882              3363.0471              3365.6959
 Red. masses --     1.0679                 1.0669                 1.0666
 Frc consts  --     7.1062                 7.1097                 7.1188
 IR Inten    --    44.1996                54.5512                50.2930
 Raman Activ --   135.8833               131.9484               133.9641

                   127                    128                    129
                     A                      A                      A
 Frequencies --  3366.1644              3888.4451              3891.0098
 Red. masses --     1.0671                 1.0677                 1.0674
 Frc consts  --     7.1243                 9.5120                 9.5218
 IR Inten    --    62.3075                80.7812                61.5279
 Raman Activ --   176.9096                78.7281               115.1596

 - Thermochemistry -
 -------------------
 Temperature   298.150 Kelvin.  Pressure   1.00000 Atm.
 Atom     1 has atomic number  8 and mass  15.99491

 Molecular mass:   342.11621 amu.
 Principal axes and moments of inertia in atomic units:
                           1         2         3
     Eigenvalues --  4431.91539********************
           X            0.99997   0.00767  -0.00071
           Y           -0.00767   0.99997   0.00006
           Z            0.00071  -0.00005   1.00000
 This molecule is an asymmetric top.
 Rotational symmetry number  1.
 Warning -- assumption of classical behavior for rotation
           may cause significant error
 Rotational temperatures (Kelvin)      0.01954     0.00706     0.00534
 Rotational constants (GHZ):           0.40721     0.14716     0.11135
    6 imaginary frequencies ignored.
 Zero-point vibrational energy     975987.2 (Joules/Mol)
                                  233.26655 (Kcal/Mol)
 Warning -- explicit consideration of  33 degrees of freedom as
           vibrations may cause significant error
 Vibrational temperatures:     23.95    75.86    85.91   123.22   140.76
          (Kelvin)            201.37   228.96   248.69   284.21   310.71
                              329.22   390.77   417.08   430.84   442.22
                              444.47   457.41   462.66   480.60   525.62
                              554.15   594.13   613.57   620.52   630.36
                              688.54   712.57   742.46   765.88   812.74
                              855.79   866.87   891.22   906.94   947.83
                              993.24   998.82  1007.70  1031.72  1191.10
                             1203.69  1213.51  1255.88  1347.79  1375.89
                             1407.07  1409.97  1425.40  1438.83  1445.07
                             1458.91  1486.26  1501.00  1534.14  1536.49
                             1550.89  1556.71  1578.30  1586.66  1596.56
                             1598.63  1618.55  1620.71  1641.92  1646.03
                             1674.74  1698.03  1705.91  1726.84  1749.63
                             1757.87  1759.36  1791.30  1799.25  1808.79
                             1833.90  1848.75  1852.13  1877.46  1886.06
                             1901.72  1909.97  1924.20  1929.06  1934.07
                             1944.01  1959.20  1960.81  1972.95  1981.84
                             1996.55  2009.94  2018.16  2021.01  2049.43
                             2105.65  2111.20  2120.60  2128.37  2136.62
                             2175.02  4673.19  4674.76  4678.44  4695.12
                             4706.50  4707.26  4722.26  4729.61  4731.86
                             4735.81  4744.94  4751.19  4753.37  4757.15
                             4760.17  4768.22  4835.27  4838.67  4842.48
                             4843.15  5594.60  5598.29

 Zero-point correction=                           0.371734 (Hartree/Particle)
 Thermal correction to Energy=                    0.390813
 Thermal correction to Enthalpy=                  0.391757
 Thermal correction to Gibbs Free Energy=         0.324212
 Sum of electronic and zero-point Energies=          -1297.593898
 Sum of electronic and thermal Energies=             -1297.574820
 Sum of electronic and thermal Enthalpies=           -1297.573875
 Sum of electronic and thermal Free Energies=        -1297.641420

                     E (Thermal)             CV                S
                      KCal/Mol        Cal/Mol-Kelvin    Cal/Mol-Kelvin
 Total                  245.239             77.721            142.160
 Electronic               0.000              0.000              0.000
 Translational            0.889              2.981             43.384
 Rotational               0.889              2.981             35.131
 Vibrational            243.461             71.759             63.645
 Vibration     1          0.593              1.986              6.998
 Vibration     2          0.596              1.977              4.712
 Vibration     3          0.597              1.974              4.467
 Vibration     4          0.601              1.959              3.757
 Vibration     5          0.603              1.951              3.497
 Vibration     6          0.615              1.913              2.804
 Vibration     7          0.621              1.892              2.560
 Vibration     8          0.626              1.876              2.404
 Vibration     9          0.637              1.843              2.156
 Vibration    10          0.645              1.817              1.993
 Vibration    11          0.651              1.797              1.888
 Vibration    12          0.675              1.726              1.586
 Vibration    13          0.686              1.693              1.475
 Vibration    14          0.692              1.675              1.420
 Vibration    15          0.697              1.660              1.377
 Vibration    16          0.698              1.657              1.368
 Vibration    17          0.704              1.639              1.321
 Vibration    18          0.707              1.632              1.302
 Vibration    19          0.716              1.608              1.240
 Vibration    20          0.739              1.544              1.099
 Vibration    21          0.754              1.502              1.019
 Vibration    22          0.777              1.442              0.916
 Vibration    23          0.788              1.413              0.870
 Vibration    24          0.792              1.402              0.854
 Vibration    25          0.798              1.387              0.833
 Vibration    26          0.835              1.298              0.714
 Vibration    27          0.851              1.261              0.670
 Vibration    28          0.871              1.214              0.619
 Vibration    29          0.887              1.179              0.582
 Vibration    30          0.921              1.107              0.514
 Vibration    31          0.953              1.043              0.459
 Vibration    32          0.961              1.026              0.445
 Vibration    33          0.979              0.991              0.417

 Normal termination of Gaussian 09 at Sun Mar 27 06:38:04 2016.
