 Gaussian 09, Revision B.01,
 Gaussian 09:  EM64L-G09RevB.01 12-Aug-2010

 ------------------------------------------------
 # freq=raman b3lyp/6-31+g(d,p) geom=connectivity
 ------------------------------------------------

 ------------
 350 8000.com
 ------------
 Symbolic Z-matrix:
 Charge =  0 Multiplicity = 1

                         Standard orientation:
 ---------------------------------------------------------------------
 Center     Atomic      Atomic             Coordinates (Angstroms)
 Number     Number       Type             X           Y           Z
 ---------------------------------------------------------------------
      1          8           0        5.024295   -0.108884   -0.372938
      2          6           0        3.684835   -0.008465    0.131933
      3          6           0        3.126277    1.307673   -0.384690
      4          8           0        3.963295    2.431835   -0.077375
      5          1           0        4.904135    2.205890   -0.331697
      6          6           0        1.696783    1.548380    0.073417
      7          8           0        1.010316    2.664499   -0.510354
      8          1           0        0.152030    2.882110   -0.044949
      9          6           0        3.234918   -2.499921    0.295472
     10          8           0        4.498567   -2.993695   -0.174172
     11          1           0        4.373990   -3.984381   -0.210772
     12          6           0        2.797644   -1.167489   -0.291164
     13          8           0        1.453519   -0.970962    0.170000
     14          6           0        0.870101    0.296452   -0.168797
     15          8           0       -0.252913    0.336794    0.723412
     16          6           0       -1.512845    0.170825    0.056322
     17          6           0       -2.044424   -1.165803    0.548566
     18          8           0       -0.996042   -2.145143    0.539473
     19          1           0       -0.118055   -1.904997    0.952191
     20          6           0       -3.278625   -1.547458   -0.253778
     21          8           0       -3.683050   -2.916255   -0.110934
     22          1           0       -4.538464   -3.175577   -0.560998
     23          6           0       -2.522408    2.720503    0.019464
     24          8           0       -1.343976    3.323099    0.574193
     25          1           0       -1.564865    4.278289    0.375553
     26          6           0       -2.543884    1.241421    0.370278
     27          8           0       -3.692092    0.795038   -0.366563
     28          6           0       -4.299715   -0.451902    0.002395
     29          8           0       -5.431054   -0.730167   -0.834456
     30          1           0        5.632426   -0.243090    0.357655
     31          1           0        2.485097   -3.228390    0.067434
     32          1           0        3.290552   -2.395456    1.358906
     33          1           0        2.796376   -1.237093   -1.358897
     34          1           0        3.720211    0.026593    1.200773
     35          1           0        3.097510    1.229727   -1.451459
     36          1           0        1.726874    1.712728    1.130291
     37          1           0        0.526755    0.278456   -1.182054
     38          1           0       -6.172824   -1.002902   -0.289485
     39          1           0       -3.391181    3.196241    0.424195
     40          1           0       -2.515272    2.835209   -1.044346
     41          1           0       -2.770748    1.166315    1.413251
     42          1           0       -1.354674    0.125430   -1.000949
     43          1           0       -2.351443   -1.035553    1.565264
     44          1           0       -2.999760   -1.443935   -1.281599
     45          1           0       -4.587533   -0.440182    1.032891
 ---------------------------------------------------------------------

 SCF Done:  E(RB3LYP) =  -1297.93573046     A.U. after   14 cycles

 The electronic state is 1-A.
 Alpha  occ. eigenvalues --  -19.20611 -19.19183 -19.18600 -19.18489 -19.17967
 Alpha  occ. eigenvalues --  -19.17406 -19.17065 -19.16496 -19.15392 -19.13974
 Alpha  occ. eigenvalues --  -19.13904 -10.31471 -10.29992 -10.26765 -10.26356
 Alpha  occ. eigenvalues --  -10.25651 -10.25359 -10.25196 -10.24771 -10.24728
 Alpha  occ. eigenvalues --  -10.24221 -10.24195 -10.24072  -1.09560  -1.08904
 Alpha  occ. eigenvalues --   -1.06876  -1.05035  -1.04118  -1.03388  -1.02701
 Alpha  occ. eigenvalues --   -1.01915  -1.01270  -0.99814  -0.99240  -0.81742
 Alpha  occ. eigenvalues --   -0.80306  -0.80072  -0.78005  -0.72091  -0.69800
 Alpha  occ. eigenvalues --   -0.66732  -0.64702  -0.63121  -0.62511  -0.61878
 Alpha  occ. eigenvalues --   -0.59667  -0.56696  -0.55681  -0.55050  -0.54691
 Alpha  occ. eigenvalues --   -0.54259  -0.53483  -0.52947  -0.51649  -0.51114
 Alpha  occ. eigenvalues --   -0.50816  -0.49996  -0.48925  -0.48548  -0.46809
 Alpha  occ. eigenvalues --   -0.46043  -0.44784  -0.44517  -0.43250  -0.42891
 Alpha  occ. eigenvalues --   -0.42382  -0.41685  -0.41099  -0.40308  -0.39744
 Alpha  occ. eigenvalues --   -0.38449  -0.38220  -0.36937  -0.36205  -0.35686
 Alpha  occ. eigenvalues --   -0.35171  -0.34276  -0.34119  -0.33246  -0.32804
 Alpha  occ. eigenvalues --   -0.31990  -0.31499  -0.30961  -0.29705  -0.29260
 Alpha  occ. eigenvalues --   -0.28910  -0.28742  -0.27557  -0.27344  -0.26519
 Alpha  occ. eigenvalues --   -0.26308
 Alpha virt. eigenvalues --   -0.02494  -0.02079  -0.01538  -0.00089   0.00243
 Alpha virt. eigenvalues --    0.00944   0.01917   0.02249   0.03001   0.03693
 Alpha virt. eigenvalues --    0.03830   0.04325   0.04968   0.05503   0.05767

 Mulliken atomic charges:
              1
     1  O   -0.542544
     2  C   -0.141533
     3  C    0.104998
     4  O   -0.515007
     5  H    0.361302
     6  C   -0.135180
     7  O   -0.566502
     8  H    0.461668
     9  C   -0.158049
    10  O   -0.525919
    11  H    0.353782
    12  C    0.280943
    13  O   -0.404431
    14  C    0.461846
    15  O   -0.348378
    16  C   -0.194480
    17  C   -0.006257
    18  O   -0.493325
    19  H    0.403497
    20  C   -0.030825
    21  O   -0.521401
    22  H    0.359198
    23  C    0.048063
    24  O   -0.579135
    25  H    0.374254
    26  C   -0.061457
    27  O   -0.328472
    28  C    0.303915
    29  O   -0.560729
    30  H    0.371350
    31  H    0.139075
    32  H    0.135369
    33  H    0.134024
    34  H    0.131058
    35  H    0.129971
    36  H    0.143408
    37  H    0.116535
    38  H    0.363848
    39  H    0.146776
    40  H    0.158443
    41  H    0.133199
    42  H    0.121438
    43  H    0.118415
    44  H    0.136441
    45  H    0.120807
 Sum of Mulliken atomic charges =   0.00000

 Dipole moment (field-independent basis, Debye):
    X=             -3.3462    Y=              0.1446    Z=              2.1442  Tot=              3.9769
 Quadrupole moment (field-independent basis, Debye-Ang):
   XX=           -115.4068   YY=           -134.2445   ZZ=           -139.6338
   XY=            -15.7223   XZ=              0.1941   YZ=              2.5807

  Exact polarizability: 227.447   0.074 193.670   1.644   0.010 142.185
 Approx polarizability: 265.434  -0.438 249.508   2.301   0.226 231.858

 ******    7 imaginary frequencies (negative Signs) ******

                     1                      2                      3
                     A                      A                      A
 Frequencies --  -330.6141              -290.9460              -232.6719
 Red. masses --     1.1575                 1.1898                 1.6740
 Frc consts  --     0.0745                 0.0593                 0.0534
 IR Inten    --   128.8594               112.1096                10.7800
 Raman Activ --     1.2534                 0.7265                 0.2124

                     4                      5                      6
                     A                      A                      A
 Frequencies --  -191.6841               -81.4376               -64.3779
 Red. masses --     2.0692                 6.5531                 6.4427
 Frc consts  --     0.0448                 0.0256                 0.0157
 IR Inten    --     2.3915                 0.8503                 0.8334
 Raman Activ --     0.1481                 0.0379                 0.0710

                     7                      8                      9
                     A                      A                      A
 Frequencies --   -26.9698                13.5642                60.0919
 Red. masses --     6.2915                 6.5503                 7.0450
 Frc consts  --     0.0027                 0.0007                 0.0150
 IR Inten    --     0.0796                 2.1441                 0.1696
 Raman Activ --     0.0079                 0.0538                 0.1419

                    10                     11                     12
                     A                      A                      A
 Frequencies --    80.2598               102.6034               133.8228
 Red. masses --     6.5959                 6.6446                 5.5796
 Frc consts  --     0.0250                 0.0412                 0.0589
 IR Inten    --     4.1590                 0.9946                 2.4419
 Raman Activ --     0.0684                 0.1929                 0.0420

                    13                     14                     15
                     A                      A                      A
 Frequencies --   153.6611               163.6386               175.1359
 Red. masses --     5.8273                 6.5054                 6.3859
 Frc consts  --     0.0811                 0.1026                 0.1154
 IR Inten    --     7.6831                 0.9318                 1.3498
 Raman Activ --     0.2118                 0.7054                 0.4985

                    16                     17                     18
                     A                      A                      A
 Frequencies --   218.8366               228.0536               259.9964
 Red. masses --     6.3470                 5.8790                 4.1406
 Frc consts  --     0.1791                 0.1801                 0.1649
 IR Inten    --     0.2993                 3.3079                17.7656
 Raman Activ --     1.3900                 1.6284                 0.1162

                    19                     20                     21
                     A                      A                      A
 Frequencies --   287.4148               293.4039               304.5000
 Red. masses --     5.5306                 5.3509                 5.6732
 Frc consts  --     0.2692                 0.2714                 0.3099
 IR Inten    --     4.1385                 4.9477                 5.0773
 Raman Activ --     0.1321                 0.0877                 0.2913

                    22                     23                     24
                     A                      A                      A
 Frequencies --   315.2695               318.6885               326.4361
 Red. masses --     4.4123                 5.2832                 6.2940
 Frc consts  --     0.2584                 0.3161                 0.3952
 IR Inten    --     7.5926                 5.7288                 2.4639
 Raman Activ --     0.9034                 1.9304                 2.9769

                    25                     26                     27
                     A                      A                      A
 Frequencies --   352.0266               362.8610               399.6716
 Red. masses --     6.0980                 5.1641                 6.8201
 Frc consts  --     0.4452                 0.4006                 0.6419
 IR Inten    --    10.5292                 7.5630                 5.9124
 Raman Activ --     3.9862                 1.3611                 2.6728

                    28                     29                     30
                     A                      A                      A
 Frequencies --   407.5136               415.1470               419.8920
 Red. masses --     5.1227                 4.6140                 4.7556
 Frc consts  --     0.5012                 0.4685                 0.4940
 IR Inten    --     2.6287                 4.8048                 2.2647
 Raman Activ --     0.5095                 6.7891                 1.0045

                    31                     32                     33
                     A                      A                      A
 Frequencies --   433.8358               471.5030               497.2915
 Red. masses --     6.6603                 4.5090                 3.7522
 Frc consts  --     0.7386                 0.5906                 0.5467
 IR Inten    --     0.9883                 4.5385                27.3604
 Raman Activ --     1.0692                 4.7424                 2.4973

                    34                     35                     36
                     A                      A                      A
 Frequencies --   498.4587               527.6872               562.6107
 Red. masses --     4.1777                 3.3851                 4.0927
 Frc consts  --     0.6116                 0.5554                 0.7633
 IR Inten    --    15.1008                 7.5450                26.0342
 Raman Activ --     0.7901                 4.9057                 1.2877

                    37                     38                     39
                     A                      A                      A
 Frequencies --   582.6519               596.6566               609.8839
 Red. masses --     4.9713                 3.5945                 3.9780
 Frc consts  --     0.9944                 0.7539                 0.8718
 IR Inten    --    15.3803                 9.9477                65.8827
 Raman Activ --     0.8510                 0.5672                 2.5474

                    40                     41                     42
                     A                      A                      A
 Frequencies --   636.9978               658.3170               665.9340
 Red. masses --     2.8473                 1.2239                 1.0580
 Frc consts  --     0.6807                 0.3125                 0.2764
 IR Inten    --    26.3817               143.7551               103.2381
 Raman Activ --     1.8722                 3.9536                 2.4003

                    43                     44                     45
                     A                      A                      A
 Frequencies --   686.3076               691.4615               756.0898
 Red. masses --     1.3621                 2.7507                 1.0615
 Frc consts  --     0.3780                 0.7749                 0.3575
 IR Inten    --   105.0767                23.0107               102.0533
 Raman Activ --     1.2799                 1.1777                 1.8713

                    46                     47                     48
                     A                      A                      A
 Frequencies --   767.0682               848.2054               872.9004
 Red. masses --     1.1404                 1.7100                 1.3328
 Frc consts  --     0.3953                 0.7249                 0.5983
 IR Inten    --   132.0696                 2.6282                37.8626
 Raman Activ --     1.5739                 0.6991                 1.3117

                    49                     50                     51
                     A                      A                      A
 Frequencies --   890.1230               937.4670               960.2092
 Red. masses --     1.3886                 3.7479                 5.3034
 Frc consts  --     0.6482                 1.9406                 2.8810
 IR Inten    --    44.4391               135.8872                15.4981
 Raman Activ --     1.1001                 5.1162                 0.6678

                    52                     53                     54
                     A                      A                      A
 Frequencies --   973.1568               992.4927              1001.8590
 Red. masses --     4.9597                 5.3330                 4.6300
 Frc consts  --     2.7674                 3.0951                 2.7381
 IR Inten    --    26.3161               124.6246                79.7977
 Raman Activ --     0.6076                 0.4030                 0.6270

                    55                     56                     57
                     A                      A                      A
 Frequencies --  1010.5819              1024.7416              1036.7621
 Red. masses --     4.8383                 5.8912                 5.5251
 Frc consts  --     2.9113                 3.6449                 3.4990
 IR Inten    --   277.6747                 1.5124                41.2905
 Raman Activ --     4.3705                 2.7855                 3.6290

                    58                     59                     60
                     A                      A                      A
 Frequencies --  1053.0913              1069.8684              1075.5760
 Red. masses --     3.4242                 3.1450                 5.2980
 Frc consts  --     2.2374                 2.1210                 3.6111
 IR Inten    --   262.1845               105.3053               113.4352
 Raman Activ --     1.6828                 9.2434                 0.2657

                    61                     62                     63
                     A                      A                      A
 Frequencies --  1077.1965              1082.3912              1085.2340
 Red. masses --     3.7019                 5.0945                 5.4917
 Frc consts  --     2.5308                 3.5165                 3.8107
 IR Inten    --    11.5172               354.0185               152.2258
 Raman Activ --    15.6145                 2.6788                 3.2483

                    64                     65                     66
                     A                      A                      A
 Frequencies --  1097.3768              1109.1549              1115.3055
 Red. masses --     2.7476                 2.6529                 2.5445
 Frc consts  --     1.9495                 1.9229                 1.8648
 IR Inten    --    43.3739                 9.2759                48.4547
 Raman Activ --     6.0412                13.7119                 6.5100

                    67                     68                     69
                     A                      A                      A
 Frequencies --  1119.0461              1123.3398              1142.4542
 Red. masses --     2.6952                 2.2136                 2.2696
 Frc consts  --     1.9886                 1.6458                 1.7454
 IR Inten    --    67.6162                 2.0039                73.7310
 Raman Activ --     5.5985                 3.8785                 2.6483

                    70                     71                     72
                     A                      A                      A
 Frequencies --  1146.3954              1149.9557              1163.2195
 Red. masses --     2.4420                 2.5887                 1.8215
 Frc consts  --     1.8908                 2.0169                 1.4521
 IR Inten    --     8.9795                87.7638                 4.7647
 Raman Activ --     5.5992                 2.0089                 4.2367

                    73                     74                     75
                     A                      A                      A
 Frequencies --  1164.5913              1177.6902              1193.8408
 Red. masses --     1.8266                 1.7660                 1.5715
 Frc consts  --     1.4596                 1.4431                 1.3196
 IR Inten    --    39.0656                 6.2805                14.2105
 Raman Activ --     3.3633                 4.1685                 5.9106

                    76                     77                     78
                     A                      A                      A
 Frequencies --  1201.8978              1215.4960              1234.7665
 Red. masses --     1.2918                 1.5999                 1.3608
 Frc consts  --     1.0995                 1.3927                 1.2224
 IR Inten    --    12.0877                10.9760                 1.4251
 Raman Activ --     1.8122                 2.8066                 0.7236

                    79                     80                     81
                     A                      A                      A
 Frequencies --  1236.2278              1249.3481              1254.9062
 Red. masses --     1.3583                 1.2153                 1.4167
 Frc consts  --     1.2230                 1.1177                 1.3145
 IR Inten    --     0.3411                 6.4579                11.3203
 Raman Activ --     1.3742                 1.7005                 3.3455

                    82                     83                     84
                     A                      A                      A
 Frequencies --  1263.1433              1271.5556              1276.7163
 Red. masses --     1.3078                 1.2062                 1.2776
 Frc consts  --     1.2294                 1.1491                 1.2270
 IR Inten    --     8.5994                 5.5925                37.9584
 Raman Activ --     5.8269                 0.2779                 2.1674

                    85                     86                     87
                     A                      A                      A
 Frequencies --  1285.0359              1287.4922              1300.9759
 Red. masses --     1.2770                 1.3122                 1.2049
 Frc consts  --     1.2424                 1.2816                 1.2016
 IR Inten    --     2.5140                49.9531                 5.9500
 Raman Activ --     3.9308                 6.6390                 1.7484

                    88                     89                     90
                     A                      A                      A
 Frequencies --  1307.6799              1331.9096              1334.5282
 Red. masses --     1.2967                 1.2437                 1.3130
 Frc consts  --     1.3064                 1.2999                 1.3778
 IR Inten    --    18.8944                13.5411                15.9112
 Raman Activ --     7.5150                 6.6737                 1.6754

                    91                     92                     93
                     A                      A                      A
 Frequencies --  1341.8480              1345.8994              1348.7501
 Red. masses --     1.2686                 1.2381                 1.3945
 Frc consts  --     1.3458                 1.3214                 1.4946
 IR Inten    --    30.4186                48.7753                 5.1141
 Raman Activ --     1.7764                 3.1833                 1.9173

                    94                     95                     96
                     A                      A                      A
 Frequencies --  1349.7289              1366.0749              1369.2170
 Red. masses --     1.2240                 1.5273                 1.3644
 Frc consts  --     1.3138                 1.6793                 1.5071
 IR Inten    --    45.3842                14.0250                 4.1859
 Raman Activ --     1.7616                 7.7615                 5.1882

                    97                     98                     99
                     A                      A                      A
 Frequencies --  1370.8221              1387.9266              1392.4396
 Red. masses --     1.4574                 1.4286                 1.5541
 Frc consts  --     1.6136                 1.6215                 1.7754
 IR Inten    --    41.0606                 6.3429                 7.9297
 Raman Activ --     4.5481                 2.4631                11.1866

                   100                    101                    102
                     A                      A                      A
 Frequencies --  1410.5786              1413.7743              1417.2109
 Red. masses --     1.3716                 1.4685                 1.4254
 Frc consts  --     1.6080                 1.7293                 1.6868
 IR Inten    --     5.0880                 2.5951                33.6802
 Raman Activ --     4.8615                 3.9950                 5.9511

                   103                    104                    105
                     A                      A                      A
 Frequencies --  1454.8051              1468.9225              1482.1893
 Red. masses --     1.4391                 1.3231                 1.1063
 Frc consts  --     1.7945                 1.6820                 1.4319
 IR Inten    --    38.1679                16.2019                 6.4518
 Raman Activ --     2.2098                 2.6689                 3.5882

                   106                    107                    108
                     A                      A                      A
 Frequencies --  1483.2427              1508.7893              3258.6928
 Red. masses --     1.0721                 1.3400                 1.0689
 Frc consts  --     1.3896                 1.7972                 6.6875
 IR Inten    --     2.4432                20.5016               945.3789
 Raman Activ --     6.3742                 0.5394               129.9721

                   109                    110                    111
                     A                      A                      A
 Frequencies --  3268.2631              3270.3641              3278.9515
 Red. masses --     1.0575                 1.0822                 1.0756
 Frc consts  --     6.6552                 6.8192                 6.8136
 IR Inten    --    40.3249                40.1765                11.0531
 Raman Activ --    74.0354                25.7750               206.0972

                   112                    113                    114
                     A                      A                      A
 Frequencies --  3281.1996              3282.9358              3286.5342
 Red. masses --     1.0645                 1.0832                 1.0830
 Frc consts  --     6.7524                 6.8785                 6.8923
 IR Inten    --    72.9374                 4.9556                11.9868
 Raman Activ --   111.5414                31.1350               130.3767

                   115                    116                    117
                     A                      A                      A
 Frequencies --  3290.6567              3294.7123              3298.3401
 Red. masses --     1.0838                 1.0855                 1.0863
 Frc consts  --     6.9143                 6.9423                 6.9626
 IR Inten    --    13.0488                 5.5239                38.4489
 Raman Activ --    37.7521                63.6975                98.9560

                   118                    119                    120
                     A                      A                      A
 Frequencies --  3301.8536              3308.7839              3313.9725
 Red. masses --     1.0870                 1.0876                 1.0857
 Frc consts  --     6.9823                 7.0157                 7.0253
 IR Inten    --    40.0721                 6.9179               117.8229
 Raman Activ --    15.2956                 5.9507                21.1725

                   121                    122                    123
                     A                      A                      A
 Frequencies --  3328.7247              3344.0642              3381.8787
 Red. masses --     1.1067                 1.1114                 1.0671
 Frc consts  --     7.2251                 7.3224                 7.1906
 IR Inten    --    53.2634                27.1656               175.0174
 Raman Activ --    26.4182                58.7841                59.4342

                   124                    125                    126
                     A                      A                      A
 Frequencies --  3382.8118              3385.6300              3395.1838
 Red. masses --     1.0674                 1.0653                 1.0650
 Frc consts  --     7.1967                 7.1945                 7.2333
 IR Inten    --   174.0228                29.6841                47.6226
 Raman Activ --   269.2468               108.8912               123.2545

                   127                    128                    129
                     A                      A                      A
 Frequencies --  3402.7188              3919.9935              3921.9040
 Red. masses --     1.0679                 1.0677                 1.0676
 Frc consts  --     7.2852                 9.6668                 9.6746
 IR Inten    --    30.8529                76.1997                77.3103
 Raman Activ --   140.4077                85.2771               114.6035

 - Thermochemistry -
 -------------------
 Temperature   298.150 Kelvin.  Pressure   1.00000 Atm.
 Atom     1 has atomic number  8 and mass  15.99491

 Molecular mass:   342.11621 amu.
 Principal axes and moments of inertia in atomic units:
                           1         2         3
     Eigenvalues --  4461.45197********************
           X            0.99997  -0.00833  -0.00021
           Y            0.00833   0.99997  -0.00043
           Z            0.00021   0.00043   1.00000
 This molecule is an asymmetric top.
 Rotational symmetry number  1.
 Warning -- assumption of classical behavior for rotation
           may cause significant error
 Rotational temperatures (Kelvin)      0.01941     0.00707     0.00534
 Rotational constants (GHZ):           0.40452     0.14730     0.11136
    7 imaginary frequencies ignored.
 Zero-point vibrational energy     976700.3 (Joules/Mol)
                                  233.43697 (Kcal/Mol)
 Warning -- explicit consideration of  32 degrees of freedom as
           vibrations may cause significant error
 Vibrational temperatures:     19.52    86.46   115.48   147.62   192.54
          (Kelvin)            221.08   235.44   251.98   314.86   328.12
                              374.08   413.53   422.14   438.11   453.60
                              458.52   469.67   506.49   522.08   575.04
                              586.32   597.30   604.13   624.19   678.39
                              715.49   717.17   759.22   809.47   838.31
                              858.45   877.49   916.50   947.17   958.13
                              987.44   994.86  1087.84  1103.64  1220.38
                             1255.91  1280.69  1348.80  1381.53  1400.15
                             1427.97  1441.45  1454.00  1474.37  1491.67
                             1515.16  1539.30  1547.51  1549.84  1557.32
                             1561.41  1578.88  1595.82  1604.67  1610.06
                             1616.23  1643.73  1649.41  1654.53  1673.61
                             1675.59  1694.43  1717.67  1729.26  1748.83
                             1776.55  1778.65  1797.53  1805.53  1817.38
                             1829.48  1836.91  1848.88  1852.41  1871.81
                             1881.46  1916.32  1920.09  1930.62  1936.45
                             1940.55  1941.96  1965.47  1970.00  1972.30
                             1996.91  2003.41  2029.51  2034.10  2039.05
                             2093.14  2113.45  2132.54  2134.05  2170.81
                             4688.53  4702.30  4705.32  4717.67  4720.91
                             4723.41  4728.58  4734.52  4740.35  4745.57
                             4750.62  4760.60  4768.06  4789.29  4811.36
                             4865.76  4867.11  4871.16  4884.91  4895.75
                             5639.99  5642.74

 Zero-point correction=                           0.372005 (Hartree/Particle)
 Thermal correction to Energy=                    0.390377
 Thermal correction to Enthalpy=                  0.391321
 Thermal correction to Gibbs Free Energy=         0.325510
 Sum of electronic and zero-point Energies=          -1297.563725
 Sum of electronic and thermal Energies=             -1297.545354
 Sum of electronic and thermal Enthalpies=           -1297.544410
 Sum of electronic and thermal Free Energies=        -1297.610221

                     E (Thermal)             CV                S
                      KCal/Mol        Cal/Mol-Kelvin    Cal/Mol-Kelvin
 Total                  244.965             75.920            138.511
 Electronic               0.000              0.000              0.000
 Translational            0.889              2.981             43.384
 Rotational               0.889              2.981             35.137
 Vibrational            243.188             69.958             59.990
 Vibration     1          0.593              1.986              7.405
 Vibration     2          0.597              1.973              4.454
 Vibration     3          0.600              1.963              3.885
 Vibration     4          0.605              1.947              3.404
 Vibration     5          0.613              1.920              2.890
 Vibration     6          0.619              1.899              2.626
 Vibration     7          0.623              1.887              2.507
 Vibration     8          0.627              1.873              2.380
 Vibration     9          0.647              1.812              1.969
 Vibration    10          0.651              1.798              1.894
 Vibration    11          0.668              1.746              1.662
 Vibration    12          0.685              1.697              1.489
 Vibration    13          0.688              1.686              1.454
 Vibration    14          0.695              1.665              1.392
 Vibration    15          0.703              1.644              1.335
 Vibration    16          0.705              1.638              1.317
 Vibration    17          0.710              1.623              1.278
 Vibration    18          0.729              1.571              1.157
 Vibration    19          0.737              1.549              1.110
 Vibration    20          0.766              1.471              0.964
 Vibration    21          0.772              1.454              0.935
 Vibration    22          0.779              1.437              0.909
 Vibration    23          0.783              1.427              0.892
 Vibration    24          0.795              1.396              0.846
 Vibration    25          0.828              1.313              0.733
 Vibration    26          0.853              1.256              0.665
 Vibration    27          0.854              1.253              0.662
 Vibration    28          0.883              1.189              0.592
 Vibration    29          0.918              1.112              0.519
 Vibration    30          0.939              1.069              0.480
 Vibration    31          0.954              1.039              0.455
 Vibration    32          0.969              1.011              0.433

 Normal termination of Gaussian 09 at Tue Mar  1 16:22:01 2016.
