 Gaussian 09, Revision B.01,
 Gaussian 09:  EM64L-G09RevB.01 12-Aug-2010

 ------------------------------------------------
 # freq=raman b3lyp/6-31+g(d,p) geom=connectivity
 ------------------------------------------------

 -------------
 550 10000.com
 -------------
 Symbolic Z-matrix:
 Charge =  0 Multiplicity = 1

                         Standard orientation:
 ---------------------------------------------------------------------
 Center     Atomic      Atomic             Coordinates (Angstroms)
 Number     Number       Type             X           Y           Z
 ---------------------------------------------------------------------
      1          8           0       -4.972389    0.646330   -0.666705
      2          6           0       -3.834601    0.264241    0.119289
      3          6           0       -3.546406   -1.164050   -0.315474
      4          8           0       -4.418505   -2.089898    0.348969
      5          1           0       -5.368912   -1.814594    0.203331
      6          6           0       -2.091023   -1.455452    0.010638
      7          8           0       -1.633874   -2.707307   -0.520555
      8          1           0       -2.304981   -3.415194   -0.743745
      9          6           0       -3.133175    2.558337    0.530834
     10          8           0       -2.146369    3.562123    0.252127
     11          1           0       -2.594833    4.431784    0.459540
     12          6           0       -2.705136    1.252427   -0.119995
     13          8           0       -1.402634    0.851624    0.330795
     14          6           0       -1.039230   -0.396356   -0.277636
     15          8           0        0.194733   -0.611883    0.422396
     16          6           0        1.452685   -0.395053   -0.234206
     17          6           0        1.912473    1.033767    0.005242
     18          8           0        1.157462    2.179556   -0.413271
     19          1           0        0.330641    2.303072    0.136536
     20          6           0        3.347974    1.290450   -0.426343
     21          8           0        3.765704    2.570548    0.068994
     22          1           0        3.131200    3.176990   -0.409384
     23          6           0        1.976650   -2.599488    0.830478
     24          8           0        1.808102   -3.551189   -0.230977
     25          1           0        0.907106   -3.513446   -0.662945
     26          6           0        2.507494   -1.216802    0.489491
     27          8           0        3.845451   -1.081417   -0.011719
     28          6           0        4.292155    0.268153    0.184286
     29          8           0        5.532948    0.474189   -0.507031
     30          1           0        6.246607    0.064547   -0.012578
     31          1           0        4.418442    0.464475    1.228512
     32          1           0        3.421307    1.267523   -1.493580
     33          1           0        1.933385    1.114872    1.071959
     34          1           0        1.408722   -0.631610   -1.276803
     35          1           0        2.569519   -0.743398    1.447062
     36          1           0        1.024992   -2.471714    1.302622
     37          1           0        2.642045   -3.031978    1.548184
     38          1           0       -5.774941    0.340752   -0.237599
     39          1           0       -3.216563    2.421366    1.588749
     40          1           0       -4.078246    2.864333    0.133206
     41          1           0       -2.641825    1.420646   -1.174791
     42          1           0       -4.100026    0.272986    1.155809
     43          1           0       -3.691140   -1.244186   -1.372607
     44          1           0       -2.071830   -1.578408    1.073376
     45          1           0       -0.874853   -0.281262   -1.328651
 ---------------------------------------------------------------------

 SCF Done:  E(RB3LYP) =  -1297.93624066     A.U. after   14 cycles

 The electronic state is 1-A.
 Alpha  occ. eigenvalues --  -19.20385 -19.20104 -19.19588 -19.18381 -19.18376
 Alpha  occ. eigenvalues --  -19.18123 -19.16886 -19.16151 -19.15623 -19.14871
 Alpha  occ. eigenvalues --  -19.14533 -10.32206 -10.29015 -10.27636 -10.27478
 Alpha  occ. eigenvalues --  -10.27072 -10.26834 -10.25549 -10.25169 -10.24300
 Alpha  occ. eigenvalues --  -10.23509 -10.23422 -10.22443  -1.10310  -1.08154
 Alpha  occ. eigenvalues --   -1.06901  -1.05832  -1.04403  -1.03637  -1.03197
 Alpha  occ. eigenvalues --   -1.02585  -1.01018  -0.99848  -0.99594  -0.82926
 Alpha  occ. eigenvalues --   -0.82310  -0.79032  -0.76845  -0.72401  -0.69899
 Alpha  occ. eigenvalues --   -0.68273  -0.65417  -0.63605  -0.62406  -0.61042
 Alpha  occ. eigenvalues --   -0.59919  -0.57528  -0.56916  -0.55651  -0.54206
 Alpha  occ. eigenvalues --   -0.53621  -0.53152  -0.52932  -0.52446  -0.51337
 Alpha  occ. eigenvalues --   -0.50265  -0.49296  -0.48772  -0.47689  -0.46812
 Alpha  occ. eigenvalues --   -0.45923  -0.45100  -0.44987  -0.43795  -0.43738
 Alpha  occ. eigenvalues --   -0.42482  -0.42129  -0.40941  -0.40134  -0.39309
 Alpha  occ. eigenvalues --   -0.39179  -0.38215  -0.37094  -0.36893  -0.36015
 Alpha  occ. eigenvalues --   -0.35872  -0.35520  -0.33592  -0.33433  -0.33377
 Alpha  occ. eigenvalues --   -0.31515  -0.31352  -0.31212  -0.30461  -0.30237
 Alpha  occ. eigenvalues --   -0.30005  -0.29099  -0.28056  -0.27432  -0.26784
 Alpha  occ. eigenvalues --   -0.25729
 Alpha virt. eigenvalues --   -0.04801  -0.02150  -0.01282   0.00193   0.00838
 Alpha virt. eigenvalues --    0.01045   0.01519   0.02260   0.02590   0.03446
 Alpha virt. eigenvalues --    0.03686   0.04468   0.04739   0.05367   0.05840

 Mulliken atomic charges:
              1
     1  O   -0.531642
     2  C   -0.039266
     3  C    0.016052
     4  O   -0.508705
     5  H    0.333725
     6  C    0.007593
     7  O   -0.596593
     8  H    0.384202
     9  C   -0.244775
    10  O   -0.544571
    11  H    0.361255
    12  C    0.118328
    13  O   -0.353112
    14  C    0.382706
    15  O   -0.336382
    16  C   -0.105904
    17  C   -0.199845
    18  O   -0.575853
    19  H    0.405509
    20  C    0.013274
    21  O   -0.457121
    22  H    0.365816
    23  C   -0.449886
    24  O   -0.508788
    25  H    0.364498
    26  C    0.657767
    27  O   -0.351263
    28  C    0.224422
    29  O   -0.510532
    30  H    0.348657
    31  H    0.130795
    32  H    0.151418
    33  H    0.128216
    34  H    0.144914
    35  H    0.105997
    36  H    0.156617
    37  H    0.132764
    38  H    0.349551
    39  H    0.137435
    40  H    0.158085
    41  H    0.145572
    42  H    0.147753
    43  H    0.160249
    44  H    0.154536
    45  H    0.126533
 Sum of Mulliken atomic charges =   0.00000

 Dipole moment (field-independent basis, Debye):
    X=            -10.0579    Y=              1.0831    Z=              1.8969  Tot=             10.2923
 Quadrupole moment (field-independent basis, Debye-Ang):
   XX=           -115.3744   YY=           -145.8206   ZZ=           -137.1991
   XY=             -4.1764   XZ=              5.6956   YZ=              4.0749

  Exact polarizability: 223.412   3.897 192.819   0.369   0.639 143.662
 Approx polarizability: 264.001   3.054 248.340   0.609   2.497 232.509

 ******    9 imaginary frequencies (negative Signs) ******

                     1                      2                      3
                     A                      A                      A
 Frequencies --  -299.7428              -193.6329              -193.0427
 Red. masses --     1.1638                 1.0829                 1.8639
 Frc consts  --     0.0616                 0.0239                 0.0409
 IR Inten    --   114.9771               110.7156                 8.6922
 Raman Activ --     1.0044                 1.4465                 0.2827

                     4                      5                      6
                     A                      A                      A
 Frequencies --   -97.6212               -84.5291               -62.1562
 Red. masses --     4.6330                 3.5502                 6.2664
 Frc consts  --     0.0260                 0.0149                 0.0143
 IR Inten    --     2.2479                 4.1189                 0.1720
 Raman Activ --     0.0710                 0.1277                 0.0879

                     7                      8                      9
                     A                      A                      A
 Frequencies --   -51.0891               -30.3067                -0.9307
 Red. masses --     6.7433                 6.7089                 6.2652
 Frc consts  --     0.0104                 0.0036                 0.0000
 IR Inten    --     1.6561                 0.3684                 3.3140
 Raman Activ --     0.0742                 0.0433                 0.0357

                    10                     11                     12
                     A                      A                      A
 Frequencies --    45.5752                85.8748               127.1744
 Red. masses --     6.5945                 6.5644                 6.9118
 Frc consts  --     0.0081                 0.0285                 0.0659
 IR Inten    --     0.4826                 0.5202                 1.8915
 Raman Activ --     0.1203                 0.0908                 0.3098

                    13                     14                     15
                     A                      A                      A
 Frequencies --   138.6086               152.8058               169.9618
 Red. masses --     5.1653                 6.2291                 5.9798
 Frc consts  --     0.0585                 0.0857                 0.1018
 IR Inten    --     3.5285                 0.5717                 3.8068
 Raman Activ --     0.1542                 1.0524                 0.3281

                    16                     17                     18
                     A                      A                      A
 Frequencies --   219.0371               226.8925               253.2636
 Red. masses --     5.9796                 3.8444                 4.1025
 Frc consts  --     0.1690                 0.1166                 0.1550
 IR Inten    --     0.9038                 0.7725                 0.6749
 Raman Activ --     2.1638                 1.3454                 0.9326

                    19                     20                     21
                     A                      A                      A
 Frequencies --   263.9901               273.9788               288.2488
 Red. masses --     5.0076                 4.2878                 5.5417
 Frc consts  --     0.2056                 0.1896                 0.2713
 IR Inten    --    12.3948                 7.2202                 8.7725
 Raman Activ --     0.1286                 0.2707                 0.7711

                    22                     23                     24
                     A                      A                      A
 Frequencies --   293.0990               318.0490               335.5723
 Red. masses --     5.0353                 5.9023                 5.9865
 Frc consts  --     0.2549                 0.3518                 0.3972
 IR Inten    --     3.5576                10.8524                 3.1128
 Raman Activ --     0.4000                 0.4869                 0.4350

                    25                     26                     27
                     A                      A                      A
 Frequencies --   352.3480               370.9650               378.9751
 Red. masses --     5.8038                 4.8230                 4.6919
 Frc consts  --     0.4245                 0.3911                 0.3970
 IR Inten    --     6.7095                 2.8391                 0.6062
 Raman Activ --     5.7549                 0.4838                 1.9204

                    28                     29                     30
                     A                      A                      A
 Frequencies --   413.4466               432.5136               434.8308
 Red. masses --     5.2524                 5.5690                 5.4039
 Frc consts  --     0.5290                 0.6138                 0.6020
 IR Inten    --    16.5058                 4.2799                 1.7982
 Raman Activ --     3.1531                 0.6332                 3.9297

                    31                     32                     33
                     A                      A                      A
 Frequencies --   460.3028               481.1227               505.1097
 Red. masses --     4.5045                 3.5573                 4.0898
 Frc consts  --     0.5623                 0.4852                 0.6148
 IR Inten    --     3.8859                 6.3086                 4.3515
 Raman Activ --     0.7908                 2.3592                 5.7430

                    34                     35                     36
                     A                      A                      A
 Frequencies --   529.4832               544.9662               557.8508
 Red. masses --     3.9290                 3.9430                 4.2527
 Frc consts  --     0.6490                 0.6899                 0.7797
 IR Inten    --    23.5229                18.7533                24.5599
 Raman Activ --     2.5248                 4.1239                 0.4343

                    37                     38                     39
                     A                      A                      A
 Frequencies --   585.5710               600.1546               614.2110
 Red. masses --     3.2525                 2.5296                 1.7023
 Frc consts  --     0.6571                 0.5368                 0.3784
 IR Inten    --    28.1078                 6.1967                29.5109
 Raman Activ --     1.2404                 0.5614                 1.6480

                    40                     41                     42
                     A                      A                      A
 Frequencies --   623.9847               657.6027               679.8138
 Red. masses --     2.2857                 4.3105                 1.0844
 Frc consts  --     0.5243                 1.0983                 0.2953
 IR Inten    --    52.0926                10.4482               118.1532
 Raman Activ --     0.8059                 0.4407                 1.9814

                    43                     44                     45
                     A                      A                      A
 Frequencies --   697.2627               714.7420               715.8301
 Red. masses --     1.7168                 1.1131                 1.1213
 Frc consts  --     0.4918                 0.3350                 0.3385
 IR Inten    --   118.6349                69.1185               121.3254
 Raman Activ --     0.9818                 0.6728                 3.2522

                    46                     47                     48
                     A                      A                      A
 Frequencies --   726.8067               745.0982               836.4108
 Red. masses --     1.5926                 1.1123                 2.5677
 Frc consts  --     0.4957                 0.3638                 1.0584
 IR Inten    --    64.6497               136.8201                 2.7489
 Raman Activ --     1.0476                 3.6402                 2.6546

                    49                     50                     51
                     A                      A                      A
 Frequencies --   848.6298               892.9863               941.5801
 Red. masses --     2.4325                 2.9789                 6.0586
 Frc consts  --     1.0321                 1.3996                 3.1647
 IR Inten    --     4.5059                35.5661               100.3624
 Raman Activ --     6.7465                 1.1000                 3.0091

                    52                     53                     54
                     A                      A                      A
 Frequencies --   980.2333               995.3712              1011.3253
 Red. masses --     6.8578                 5.5994                 3.9857
 Frc consts  --     3.8824                 3.2686                 2.4018
 IR Inten    --   365.6629                83.5261                88.9966
 Raman Activ --     2.6964                 1.7805                 3.9465

                    55                     56                     57
                     A                      A                      A
 Frequencies --  1014.9615              1019.7768              1022.4687
 Red. masses --     4.5794                 5.2710                 2.4488
 Frc consts  --     2.7794                 3.2296                 1.5084
 IR Inten    --   278.8637                85.8484                33.5300
 Raman Activ --     1.2128                 2.6500                 0.9228

                    58                     59                     60
                     A                      A                      A
 Frequencies --  1032.9816              1041.2765              1050.3343
 Red. masses --     5.1186                 3.4674                 3.3814
 Frc consts  --     3.2180                 2.2150                 2.1979
 IR Inten    --   178.5195               132.6518                54.8696
 Raman Activ --     5.2541                 1.2642                 6.9641

                    61                     62                     63
                     A                      A                      A
 Frequencies --  1067.9386              1070.1242              1080.1987
 Red. masses --     5.3372                 4.1773                 3.1897
 Frc consts  --     3.5864                 2.8185                 2.1929
 IR Inten    --    86.5418                21.1579                92.9934
 Raman Activ --     4.5277                 9.6016                 1.5016

                    64                     65                     66
                     A                      A                      A
 Frequencies --  1093.4863              1104.5763              1114.5399
 Red. masses --     2.6069                 3.0932                 2.6635
 Frc consts  --     1.8365                 2.2236                 1.9494
 IR Inten    --    59.9533                45.9869                 1.2557
 Raman Activ --     7.3888                 4.9355                 6.0170

                    67                     68                     69
                     A                      A                      A
 Frequencies --  1120.9424              1125.9192              1129.2551
 Red. masses --     3.2933                 2.4312                 2.2401
 Frc consts  --     2.4381                 1.8159                 1.6831
 IR Inten    --    19.8033                62.2243                 6.4375
 Raman Activ --     1.5459                 2.3814                 6.8454

                    70                     71                     72
                     A                      A                      A
 Frequencies --  1138.7694              1142.5349              1154.0826
 Red. masses --     1.5069                 2.1796                 2.2801
 Frc consts  --     1.1513                 1.6763                 1.7892
 IR Inten    --    33.1360                61.5634                12.5104
 Raman Activ --     1.3666                 3.5400                 0.8373

                    73                     74                     75
                     A                      A                      A
 Frequencies --  1159.4379              1183.2953              1200.2076
 Red. masses --     2.6743                 1.5292                 2.0403
 Frc consts  --     2.1182                 1.2615                 1.7317
 IR Inten    --     9.2920                43.4632                11.9947
 Raman Activ --     5.1838                 1.3382                 3.7101

                    76                     77                     78
                     A                      A                      A
 Frequencies --  1207.6154              1209.0911              1224.2615
 Red. masses --     1.3451                 1.9165                 1.2014
 Frc consts  --     1.1557                 1.6507                 1.0609
 IR Inten    --    20.0928                 6.6135                20.1405
 Raman Activ --     2.7390                 2.6395                 2.8953

                    79                     80                     81
                     A                      A                      A
 Frequencies --  1235.7559              1244.0090              1253.7329
 Red. masses --     1.3521                 1.2659                 1.2006
 Frc consts  --     1.2166                 1.1542                 1.1119
 IR Inten    --    20.8816                 4.1200                 7.6153
 Raman Activ --     0.6831                 2.2919                 4.3380

                    82                     83                     84
                     A                      A                      A
 Frequencies --  1263.0870              1263.4169              1273.4615
 Red. masses --     1.2800                 1.3214                 1.2751
 Frc consts  --     1.2032                 1.2427                 1.2184
 IR Inten    --    18.2918                37.0533                 7.9787
 Raman Activ --     3.4614                 3.9860                 2.5387

                    85                     86                     87
                     A                      A                      A
 Frequencies --  1287.3476              1291.4373              1297.8908
 Red. masses --     1.2297                 1.2146                 1.3117
 Frc consts  --     1.2007                 1.1935                 1.3019
 IR Inten    --     2.7124                63.2979                 1.9119
 Raman Activ --     1.7543                 4.3873                 1.0747

                    88                     89                     90
                     A                      A                      A
 Frequencies --  1316.2789              1325.8766              1328.4816
 Red. masses --     1.3273                 1.3099                 1.2358
 Frc consts  --     1.3550                 1.3567                 1.2850
 IR Inten    --    27.7250                10.8120                15.1557
 Raman Activ --     4.2647                 5.2464                 2.8598

                    91                     92                     93
                     A                      A                      A
 Frequencies --  1331.9136              1346.9121              1360.6430
 Red. masses --     1.2873                 1.2594                 1.4558
 Frc consts  --     1.3454                 1.3461                 1.5879
 IR Inten    --    24.3547                59.8686                 5.1255
 Raman Activ --     6.3112                 3.0041                 6.2706

                    94                     95                     96
                     A                      A                      A
 Frequencies --  1364.5707              1373.0308              1378.3104
 Red. masses --     1.5490                 1.2770                 1.5198
 Frc consts  --     1.6994                 1.4184                 1.7011
 IR Inten    --     3.0558                20.1951                25.1061
 Raman Activ --     1.3738                 3.7905                10.4716

                    97                     98                     99
                     A                      A                      A
 Frequencies --  1386.3284              1394.9187              1400.3551
 Red. masses --     1.5636                 1.4762                 1.2698
 Frc consts  --     1.7706                 1.6923                 1.4671
 IR Inten    --    13.7456                34.0899                 0.9476
 Raman Activ --     1.5328                 6.4994                 3.0159

                   100                    101                    102
                     A                      A                      A
 Frequencies --  1407.0511              1412.2861              1419.6394
 Red. masses --     1.5903                 1.2660                 1.6484
 Frc consts  --     1.8550                 1.4877                 1.9574
 IR Inten    --    28.1171                75.0809                12.7421
 Raman Activ --     5.4383                 3.9852                 2.2621

                   103                    104                    105
                     A                      A                      A
 Frequencies --  1454.8598              1456.2167              1460.4499
 Red. masses --     1.1879                 1.0743                 1.3551
 Frc consts  --     1.4814                 1.3422                 1.7029
 IR Inten    --     5.5438                15.2645                14.8831
 Raman Activ --     1.3847                 5.4688                 0.7429

                   106                    107                    108
                     A                      A                      A
 Frequencies --  1474.9594              1493.8308              3254.5580
 Red. masses --     1.0870                 1.4228                 1.0814
 Frc consts  --     1.3933                 1.8707                 6.7487
 IR Inten    --     3.1637                70.1786                 8.2580
 Raman Activ --     6.8860                 1.8707                 8.9814

                   109                    110                    111
                     A                      A                      A
 Frequencies --  3272.0008              3275.2348              3287.1786
 Red. masses --     1.0565                 1.0810                 1.0821
 Frc consts  --     6.6640                 6.8322                 6.8888
 IR Inten    --    31.6963                11.7222                 3.2163
 Raman Activ --    80.5867                61.5630                51.5900

                   112                    113                    114
                     A                      A                      A
 Frequencies --  3290.5103              3291.3200              3298.9643
 Red. masses --     1.0608                 1.0834                 1.0849
 Frc consts  --     6.7672                 6.9146                 6.9568
 IR Inten    --    45.8199                 2.2464                12.6372
 Raman Activ --   165.7391               168.6863               115.2565

                   115                    116                    117
                     A                      A                      A
 Frequencies --  3299.1619              3305.9211              3309.7628
 Red. masses --     1.0849                 1.0862                 1.0859
 Frc consts  --     6.9573                 6.9942                 7.0085
 IR Inten    --     2.2424                 4.6000                22.9360
 Raman Activ --    16.7607                13.2102                 6.5237

                   118                    119                    120
                     A                      A                      A
 Frequencies --  3313.7138              3317.8489              3337.6346
 Red. masses --     1.0869                 1.0866                 1.1085
 Frc consts  --     7.0315                 7.0474                 7.2756
 IR Inten    --    14.4000                98.9583                30.2914
 Raman Activ --     5.2717                52.9727                45.7626

                   121                    122                    123
                     A                      A                      A
 Frequencies --  3341.7364              3383.5634              3384.3230
 Red. masses --     1.1050                 1.0664                 1.0674
 Frc consts  --     7.2707                 7.1931                 7.2032
 IR Inten    --    22.8505                34.3049               131.7081
 Raman Activ --    61.4806               165.9559                79.5400

                   124                    125                    126
                     A                      A                      A
 Frequencies --  3387.1964              3388.8050              3389.3683
 Red. masses --     1.0700                 1.0685                 1.0670
 Frc consts  --     7.2328                 7.2296                 7.2220
 IR Inten    --   108.1921                48.5111                23.0002
 Raman Activ --   166.5980                55.2525               198.0423

                   127                    128                    129
                     A                      A                      A
 Frequencies --  3402.1416              3910.1754              3915.0038
 Red. masses --     1.0644                 1.0673                 1.0669
 Frc consts  --     7.2590                 9.6145                 9.6344
 IR Inten    --    45.9095                39.4409                47.3597
 Raman Activ --    57.7103               106.0740               162.1112

 - Thermochemistry -
 -------------------
 Temperature   298.150 Kelvin.  Pressure   1.00000 Atm.
 Atom     1 has atomic number  8 and mass  15.99491

 Molecular mass:   342.11621 amu.
 Principal axes and moments of inertia in atomic units:
                           1         2         3
     Eigenvalues --  4536.79727********************
           X            0.99999  -0.00429   0.00163
           Y            0.00429   0.99999   0.00037
           Z           -0.00163  -0.00036   1.00000
 This molecule is an asymmetric top.
 Rotational symmetry number  1.
 Warning -- assumption of classical behavior for rotation
           may cause significant error
 Rotational temperatures (Kelvin)      0.01909     0.00725     0.00542
 Rotational constants (GHZ):           0.39780     0.15101     0.11295
    9 imaginary frequencies ignored.
 Zero-point vibrational energy     974256.2 (Joules/Mol)
                                  232.85281 (Kcal/Mol)
 Warning -- explicit consideration of  30 degrees of freedom as
           vibrations may cause significant error
 Vibrational temperatures:     65.57   123.55   182.98   199.43   219.85
          (Kelvin)            244.54   315.15   326.45   364.39   379.82
                              394.19   414.73   421.70   457.60   482.81
                              506.95   533.74   545.26   594.86   622.29
                              625.62   662.27   692.23   726.74   761.81
                              784.08   802.62   842.50   863.49   883.71
                              897.77   946.14   978.10  1003.20  1028.35
                             1029.92  1045.71  1072.03  1203.41  1220.99
                             1284.81  1354.72  1410.34  1432.12  1455.07
                             1460.30  1467.23  1471.10  1486.23  1498.16
                             1511.19  1536.52  1539.67  1554.16  1573.28
                             1589.24  1603.57  1612.78  1619.94  1624.74
                             1638.43  1643.85  1660.47  1668.17  1702.50
                             1726.83  1737.49  1739.61  1761.44  1777.97
                             1789.85  1803.84  1817.30  1817.77  1832.22
                             1852.20  1858.09  1867.37  1893.83  1907.64
                             1911.39  1916.32  1937.90  1957.66  1963.31
                             1975.48  1983.08  1994.61  2006.97  2014.80
                             2024.43  2031.96  2042.54  2093.22  2095.17
                             2101.26  2122.13  2149.29  4682.58  4707.67
                             4712.33  4729.51  4734.30  4735.47  4746.47
                             4746.75  4756.48  4762.00  4767.69  4773.64
                             4802.11  4808.01  4868.19  4869.28  4873.41
                             4875.73  4876.54  4894.92  5625.86  5632.81

 Zero-point correction=                           0.371075 (Hartree/Particle)
 Thermal correction to Energy=                    0.387986
 Thermal correction to Enthalpy=                  0.388931
 Thermal correction to Gibbs Free Energy=         0.327648
 Sum of electronic and zero-point Energies=          -1297.565166
 Sum of electronic and thermal Energies=             -1297.548254
 Sum of electronic and thermal Enthalpies=           -1297.547310
 Sum of electronic and thermal Free Energies=        -1297.608593

                     E (Thermal)             CV                S
                      KCal/Mol        Cal/Mol-Kelvin    Cal/Mol-Kelvin
 Total                  243.465             72.477            128.980
 Electronic               0.000              0.000              0.000
 Translational            0.889              2.981             43.384
 Rotational               0.889              2.981             35.115
 Vibrational            241.688             66.515             50.481
 Vibration     1          0.595              1.979              5.001
 Vibration     2          0.601              1.959              3.752
 Vibration     3          0.611              1.926              2.988
 Vibration     4          0.614              1.915              2.823
 Vibration     5          0.619              1.900              2.637
 Vibration     6          0.625              1.879              2.436
 Vibration     7          0.647              1.812              1.967
 Vibration     8          0.651              1.800              1.903
 Vibration     9          0.664              1.757              1.708
 Vibration    10          0.671              1.739              1.635
 Vibration    11          0.676              1.721              1.571
 Vibration    12          0.685              1.696              1.484
 Vibration    13          0.688              1.687              1.456
 Vibration    14          0.704              1.639              1.320
 Vibration    15          0.717              1.604              1.233
 Vibration    16          0.729              1.570              1.156
 Vibration    17          0.743              1.532              1.076
 Vibration    18          0.749              1.515              1.043
 Vibration    19          0.777              1.441              0.915
 Vibration    20          0.793              1.399              0.850
 Vibration    21          0.795              1.394              0.843
 Vibration    22          0.818              1.338              0.765
 Vibration    23          0.837              1.292              0.707
 Vibration    24          0.860              1.239              0.645
 Vibration    25          0.884              1.185              0.588
 Vibration    26          0.900              1.151              0.555
 Vibration    27          0.913              1.123              0.528
 Vibration    28          0.943              1.063              0.475
 Vibration    29          0.958              1.031              0.449
 Vibration    30          0.974              1.002              0.426

 Normal termination of Gaussian 09 at Tue Mar  1 16:49:07 2016.
