 Gaussian 09, Revision B.01,
 Gaussian 09:  EM64L-G09RevB.01 12-Aug-2010

 ------------------------------------------------
 # freq=raman b3lyp/6-31+g(d,p) geom=connectivity
 ------------------------------------------------

 ------------
 450 7000.com
 ------------
 Symbolic Z-matrix:
 Charge =  0 Multiplicity = 1

                         Standard orientation:
 ---------------------------------------------------------------------
 Center     Atomic      Atomic             Coordinates (Angstroms)
 Number     Number       Type             X           Y           Z
 ---------------------------------------------------------------------
      1          8           0       -5.040177    0.646809   -0.571972
      2          6           0       -3.889185    0.062311    0.054988
      3          6           0       -3.428283   -1.289852   -0.463801
      4          8           0       -4.240199   -2.365385    0.028685
      5          1           0       -5.176242   -2.246102   -0.304598
      6          6           0       -2.054319   -1.715224    0.028178
      7          8           0       -1.407777   -2.820733   -0.618232
      8          1           0       -2.117906   -3.524322   -0.582536
      9          6           0       -3.219693    2.402093    0.413705
     10          8           0       -2.254682    3.463915    0.412022
     11          1           0       -2.878923    4.223444    0.595219
     12          6           0       -2.759982    1.062179   -0.137233
     13          8           0       -1.611806    0.586998    0.581128
     14          6           0       -1.093561   -0.547578   -0.127467
     15          8           0        0.115349   -0.734590    0.623448
     16          6           0        1.369579   -0.316745    0.065195
     17          6           0        1.694529    1.140953    0.345729
     18          8           0        0.702439    2.045102   -0.163832
     19          1           0       -0.176280    2.018242    0.313481
     20          6           0        2.933473    1.535932   -0.441487
     21          8           0        3.384581    2.898239   -0.411160
     22          1           0        2.883985    3.398490   -1.117001
     23          6           0        2.227844   -2.559285    0.172996
     24          8           0        3.444964   -3.319261    0.208569
     25          1           0        3.844977   -3.228142    1.119667
     26          6           0        2.552114   -1.128700    0.569109
     27          8           0        3.768226   -0.762541   -0.098128
     28          6           0        4.057704    0.635176    0.043535
     29          8           0        5.351021    0.836651   -0.544141
     30          1           0        6.023257    0.449185    0.021163
     31          1           0        4.164950    0.823318    1.091391
     32          1           0        2.746330    1.290581   -1.466026
     33          1           0        1.847674    1.300129    1.392682
     34          1           0        1.312770   -0.442540   -0.995865
     35          1           0        2.654056   -1.039877    1.630531
     36          1           0        1.522535   -2.974108    0.862460
     37          1           0        1.819711   -2.576735   -0.815954
     38          1           0       -5.814905    0.491846   -0.026643
     39          1           0       -3.541807    2.250784    1.422788
     40          1           0       -4.063794    2.722670   -0.160424
     41          1           0       -2.527573    1.155079   -1.177548
     42          1           0       -4.086402   -0.029000    1.102684
     43          1           0       -3.442879   -1.289057   -1.533701
     44          1           0       -2.134639   -1.943802    1.070387
     45          1           0       -0.895718   -0.319285   -1.153936
 ---------------------------------------------------------------------

 SCF Done:  E(RB3LYP) =  -1297.93895542     A.U. after   14 cycles

 The electronic state is 1-A.
 Alpha  occ. eigenvalues --  -19.20322 -19.19876 -19.19199 -19.18555 -19.17924
 Alpha  occ. eigenvalues --  -19.17831 -19.16707 -19.15649 -19.15545 -19.14561
 Alpha  occ. eigenvalues --  -19.14318 -10.31286 -10.28640 -10.27594 -10.27322
 Alpha  occ. eigenvalues --  -10.26584 -10.26399 -10.24967 -10.24836 -10.24298
 Alpha  occ. eigenvalues --  -10.23982 -10.23678 -10.22262  -1.10213  -1.07614
 Alpha  occ. eigenvalues --   -1.06874  -1.06135  -1.04278  -1.03860  -1.02984
 Alpha  occ. eigenvalues --   -1.01940  -1.01018  -0.99727  -0.99301  -0.82584
 Alpha  occ. eigenvalues --   -0.81797  -0.78931  -0.77549  -0.71931  -0.69063
 Alpha  occ. eigenvalues --   -0.67652  -0.64426  -0.62824  -0.62607  -0.61658
 Alpha  occ. eigenvalues --   -0.60015  -0.57571  -0.56650  -0.54976  -0.54063
 Alpha  occ. eigenvalues --   -0.53545  -0.52917  -0.52739  -0.51775  -0.50716
 Alpha  occ. eigenvalues --   -0.49855  -0.49155  -0.48403  -0.47592  -0.46729
 Alpha  occ. eigenvalues --   -0.45757  -0.44870  -0.44687  -0.43529  -0.43446
 Alpha  occ. eigenvalues --   -0.42704  -0.42204  -0.41048  -0.40100  -0.39861
 Alpha  occ. eigenvalues --   -0.39065  -0.38091  -0.37370  -0.36958  -0.36265
 Alpha  occ. eigenvalues --   -0.34868  -0.34666  -0.34242  -0.34019  -0.32768
 Alpha  occ. eigenvalues --   -0.32021  -0.31420  -0.30889  -0.30359  -0.29600
 Alpha  occ. eigenvalues --   -0.29525  -0.28862  -0.28367  -0.27526  -0.26190
 Alpha  occ. eigenvalues --   -0.25162
 Alpha virt. eigenvalues --   -0.04084  -0.02122  -0.00912  -0.00534   0.00437
 Alpha virt. eigenvalues --    0.01143   0.01470   0.02071   0.02217   0.02991
 Alpha virt. eigenvalues --    0.03736   0.04257   0.05174   0.05387   0.05832

 Mulliken atomic charges:
              1
     1  O   -0.529169
     2  C   -0.228864
     3  C    0.234278
     4  O   -0.536578
     5  H    0.350912
     6  C   -0.118824
     7  O   -0.488426
     8  H    0.365018
     9  C   -0.247850
    10  O   -0.524725
    11  H    0.356829
    12  C    0.310035
    13  O   -0.414828
    14  C    0.274191
    15  O   -0.293810
    16  C   -0.149951
    17  C    0.069884
    18  O   -0.544411
    19  H    0.416297
    20  C   -0.175029
    21  O   -0.456830
    22  H    0.360398
    23  C    0.044127
    24  O   -0.482376
    25  H    0.333188
    26  C   -0.143440
    27  O   -0.297122
    28  C    0.357274
    29  O   -0.492791
    30  H    0.349122
    31  H    0.100449
    32  H    0.135864
    33  H    0.134336
    34  H    0.121482
    35  H    0.132618
    36  H    0.153360
    37  H    0.141572
    38  H    0.363393
    39  H    0.128264
    40  H    0.158956
    41  H    0.141218
    42  H    0.149227
    43  H    0.155767
    44  H    0.159529
    45  H    0.127436
 Sum of Mulliken atomic charges =   0.00000

 Dipole moment (field-independent basis, Debye):
    X=             -9.4828    Y=              0.1526    Z=              2.3997  Tot=              9.7829
 Quadrupole moment (field-independent basis, Debye-Ang):
   XX=           -114.5579   YY=           -146.8110   ZZ=           -134.5526
   XY=             -4.9417   XZ=             10.5984   YZ=             -2.7499

  Exact polarizability: 222.573   0.476 193.181   0.701  -1.617 142.323
 Approx polarizability: 263.545  -1.304 246.771   0.509  -3.661 233.597

 ******    7 imaginary frequencies (negative Signs) ******

                     1                      2                      3
                     A                      A                      A
 Frequencies --  -298.5448              -259.5385              -204.0952
 Red. masses --     1.0841                 1.8134                 1.1790
 Frc consts  --     0.0569                 0.0720                 0.0289
 IR Inten    --   125.2913                 1.7883               116.9401
 Raman Activ --     1.5271                 0.1420                 1.1380

                     4                      5                      6
                     A                      A                      A
 Frequencies --  -110.8132               -68.7524               -57.8511
 Red. masses --     2.0498                 5.5826                 6.3574
 Frc consts  --     0.0148                 0.0155                 0.0125
 IR Inten    --     4.3170                 0.9607                 0.5464
 Raman Activ --     0.0830                 0.0936                 0.0551

                     7                      8                      9
                     A                      A                      A
 Frequencies --   -30.9445                15.3585                47.5460
 Red. masses --     5.8681                 6.0811                 6.7588
 Frc consts  --     0.0033                 0.0008                 0.0090
 IR Inten    --     0.1879                 1.0148                 0.1978
 Raman Activ --     0.0264                 0.0365                 0.0176

                    10                     11                     12
                     A                      A                      A
 Frequencies --    65.2179                96.9271               109.3440
 Red. masses --     6.2419                 6.1434                 6.3093
 Frc consts  --     0.0156                 0.0340                 0.0444
 IR Inten    --     0.9452                 2.4606                 3.4897
 Raman Activ --     0.1170                 0.1133                 0.1939

                    13                     14                     15
                     A                      A                      A
 Frequencies --   127.0574               151.9962               178.7726
 Red. masses --     5.6952                 6.5134                 6.3763
 Frc consts  --     0.0542                 0.0887                 0.1201
 IR Inten    --     2.1434                 2.1919                 0.8488
 Raman Activ --     0.1219                 0.8154                 0.2909

                    16                     17                     18
                     A                      A                      A
 Frequencies --   198.6466               214.0059               254.1926
 Red. masses --     5.3449                 6.6065                 5.5255
 Frc consts  --     0.1243                 0.1783                 0.2104
 IR Inten    --     2.2212                 1.6433                11.0595
 Raman Activ --     0.6200                 1.3883                 1.0712

                    19                     20                     21
                     A                      A                      A
 Frequencies --   273.8800               288.6788               293.0991
 Red. masses --     4.7481                 5.9705                 5.3963
 Frc consts  --     0.2098                 0.2932                 0.2731
 IR Inten    --     1.6454                 2.6130                 2.2749
 Raman Activ --     0.4859                 0.4419                 0.2084

                    22                     23                     24
                     A                      A                      A
 Frequencies --   313.8095               316.8993               339.6357
 Red. masses --     4.3623                 5.8933                 6.0426
 Frc consts  --     0.2531                 0.3487                 0.4107
 IR Inten    --     7.4948                 4.7874                 2.8301
 Raman Activ --     0.4197                 1.1786                 4.5374

                    25                     26                     27
                     A                      A                      A
 Frequencies --   351.9626               376.7960               381.0615
 Red. masses --     5.6755                 6.6719                 4.0914
 Frc consts  --     0.4142                 0.5581                 0.3500
 IR Inten    --     1.3820                 1.9998                 6.6036
 Raman Activ --     5.7386                 0.9587                 0.6628

                    28                     29                     30
                     A                      A                      A
 Frequencies --   410.4371               429.8558               435.7305
 Red. masses --     5.6602                 5.4168                 6.0692
 Frc consts  --     0.5618                 0.5897                 0.6789
 IR Inten    --     2.8554                 7.1599                 1.5420
 Raman Activ --     5.2568                 1.8375                 0.7505

                    31                     32                     33
                     A                      A                      A
 Frequencies --   459.0570               476.7530               494.1684
 Red. masses --     3.8512                 4.0680                 4.4462
 Frc consts  --     0.4782                 0.5448                 0.6397
 IR Inten    --    11.7163                 5.7015                13.3248
 Raman Activ --     0.8646                 4.4947                 1.2444

                    34                     35                     36
                     A                      A                      A
 Frequencies --   540.4388               561.3293               568.0444
 Red. masses --     3.6614                 3.9194                 5.7568
 Frc consts  --     0.6301                 0.7276                 1.0944
 IR Inten    --    22.9326                25.4472                11.1590
 Raman Activ --     3.7272                 0.9209                 3.5000

                    37                     38                     39
                     A                      A                      A
 Frequencies --   590.2068               595.0866               616.7424
 Red. masses --     2.8742                 3.2022                 3.0247
 Frc consts  --     0.5899                 0.6681                 0.6779
 IR Inten    --     4.9473                31.8480                17.1173
 Raman Activ --     0.7220                 0.7565                 0.2661

                    40                     41                     42
                     A                      A                      A
 Frequencies --   653.7880               658.3896               667.8879
 Red. masses --     2.6806                 3.1014                 1.1916
 Frc consts  --     0.6751                 0.7921                 0.3132
 IR Inten    --    49.3424                 7.3310                88.5893
 Raman Activ --     1.0552                 0.5957                 1.0113

                    43                     44                     45
                     A                      A                      A
 Frequencies --   672.1996               709.6403               741.4836
 Red. masses --     1.2288                 1.1534                 1.0902
 Frc consts  --     0.3271                 0.3422                 0.3532
 IR Inten    --   135.2201               102.8907               154.4000
 Raman Activ --     1.5688                 2.0031                 3.2345

                    46                     47                     48
                     A                      A                      A
 Frequencies --   746.3094               760.3662               855.3116
 Red. masses --     1.0988                 1.0913                 2.3306
 Frc consts  --     0.3606                 0.3717                 1.0045
 IR Inten    --    91.5002               127.4935                 9.5678
 Raman Activ --     2.0861                 2.6652                 2.4859

                    49                     50                     51
                     A                      A                      A
 Frequencies --   860.2671               946.0019               976.4088
 Red. masses --     2.3578                 5.6505                 6.9834
 Frc consts  --     1.0281                 2.9793                 3.9227
 IR Inten    --     1.3922                53.9321               314.8917
 Raman Activ --     5.0869                 3.8760                 2.3892

                    52                     53                     54
                     A                      A                      A
 Frequencies --   984.7813               985.9407               999.6146
 Red. masses --     3.4009                 5.7748                 5.4738
 Frc consts  --     1.9432                 3.3074                 3.2226
 IR Inten    --    37.9258                61.8920                49.2212
 Raman Activ --     1.9033                 1.1957                 4.2944

                    55                     56                     57
                     A                      A                      A
 Frequencies --  1003.2280              1029.2244              1035.3011
 Red. masses --     4.1164                 3.6744                 4.9699
 Frc consts  --     2.4410                 2.2933                 3.1386
 IR Inten    --    84.3870               273.5895               297.4357
 Raman Activ --     1.7837                 6.1338                 1.0252

                    58                     59                     60
                     A                      A                      A
 Frequencies --  1041.9822              1047.2733              1065.2831
 Red. masses --     3.0040                 2.0481                 3.8143
 Frc consts  --     1.9216                 1.3235                 2.5503
 IR Inten    --    85.7097                54.9798                47.1932
 Raman Activ --     0.7061                 7.6218                 9.6269

                    61                     62                     63
                     A                      A                      A
 Frequencies --  1074.8860              1085.7299              1090.9603
 Red. masses --     3.8829                 4.4765                 2.2047
 Frc consts  --     2.6432                 3.1091                 1.5460
 IR Inten    --   139.6251                34.5779                17.2933
 Raman Activ --     0.7953                15.2748                 6.8210

                    64                     65                     66
                     A                      A                      A
 Frequencies --  1093.6982              1104.1127              1105.4366
 Red. masses --     5.1338                 2.3423                 2.2556
 Frc consts  --     3.6182                 1.6824                 1.6240
 IR Inten    --    67.3774                50.4835                21.4965
 Raman Activ --     0.8134                 5.4664                 7.2298

                    67                     68                     69
                     A                      A                      A
 Frequencies --  1115.2795              1116.2730              1131.3922
 Red. masses --     2.4467                 2.7327                 3.1080
 Frc consts  --     1.7930                 2.0063                 2.3440
 IR Inten    --     9.7751                16.7355                26.6573
 Raman Activ --     6.5321                 2.1199                 2.7429

                    70                     71                     72
                     A                      A                      A
 Frequencies --  1141.6638              1144.0929              1152.4675
 Red. masses --     2.6577                 2.1446                 2.8508
 Frc consts  --     2.0409                 1.6540                 2.2309
 IR Inten    --    49.5602                32.5176                70.3435
 Raman Activ --     4.0769                 7.5760                 0.2085

                    73                     74                     75
                     A                      A                      A
 Frequencies --  1161.9901              1178.8024              1180.2224
 Red. masses --     2.5238                 1.6385                 1.7952
 Frc consts  --     2.0077                 1.3414                 1.4733
 IR Inten    --    15.6034                 8.9194                19.0416
 Raman Activ --     1.9682                 0.9690                 3.6727

                    76                     77                     78
                     A                      A                      A
 Frequencies --  1187.5213              1199.6042              1229.0590
 Red. masses --     1.6068                 1.5274                 1.3048
 Frc consts  --     1.3351                 1.2950                 1.1613
 IR Inten    --    13.7305                13.5810                 3.7196
 Raman Activ --     1.9434                 1.7795                 2.7387

                    79                     80                     81
                     A                      A                      A
 Frequencies --  1238.3443              1239.7618              1240.7385
 Red. masses --     1.3639                 1.2834                 1.2277
 Frc consts  --     1.2323                 1.1622                 1.1135
 IR Inten    --    10.5527                 8.5298                18.0590
 Raman Activ --     3.8505                 3.0776                 4.5638

                    82                     83                     84
                     A                      A                      A
 Frequencies --  1250.2781              1273.4851              1278.8386
 Red. masses --     1.2463                 1.2873                 1.3328
 Frc consts  --     1.1478                 1.2301                 1.2843
 IR Inten    --    14.0257                26.0934                 9.8900
 Raman Activ --     0.4687                 3.2030                 2.9138

                    85                     86                     87
                     A                      A                      A
 Frequencies --  1283.9249              1291.7534              1309.2982
 Red. masses --     1.2778                 1.1728                 1.4152
 Frc consts  --     1.2411                 1.1530                 1.4294
 IR Inten    --     8.9121                 9.7039                 7.4165
 Raman Activ --     0.9875                 4.3513                 0.8502

                    88                     89                     90
                     A                      A                      A
 Frequencies --  1312.6774              1325.8011              1338.3203
 Red. masses --     1.3301                 1.3250                 1.4124
 Frc consts  --     1.3504                 1.3722                 1.4905
 IR Inten    --    10.2771                21.6497                18.3090
 Raman Activ --     5.2910                 0.9969                 6.6827

                    91                     92                     93
                     A                      A                      A
 Frequencies --  1343.8741              1348.7915              1353.9331
 Red. masses --     1.4221                 1.3213                 1.2808
 Frc consts  --     1.5132                 1.4162                 1.3833
 IR Inten    --    15.9586                71.6779                10.4700
 Raman Activ --     4.0973                 6.8392                 0.0903

                    94                     95                     96
                     A                      A                      A
 Frequencies --  1356.7655              1366.2961              1375.6386
 Red. masses --     1.4468                 1.4419                 1.2745
 Frc consts  --     1.5692                 1.5859                 1.4210
 IR Inten    --    13.5616                18.1078                27.8961
 Raman Activ --    10.0497                 2.4097                 2.4102

                    97                     98                     99
                     A                      A                      A
 Frequencies --  1377.9120              1392.8647              1400.3448
 Red. masses --     1.2381                 1.3129                 1.4622
 Frc consts  --     1.3850                 1.5007                 1.6893
 IR Inten    --     0.8469                 4.6641                13.4258
 Raman Activ --     3.0461                 7.1587                 4.8807

                   100                    101                    102
                     A                      A                      A
 Frequencies --  1412.9294              1418.0839              1439.2460
 Red. masses --     1.3292                 1.5277                 1.1799
 Frc consts  --     1.5635                 1.8101                 1.4401
 IR Inten    --    11.7303                28.2960                77.7276
 Raman Activ --     5.9236                 4.0237                 3.8601

                   103                    104                    105
                     A                      A                      A
 Frequencies --  1461.6544              1464.2737              1470.4396
 Red. masses --     1.4812                 1.1114                 1.4815
 Frc consts  --     1.8645                 1.4040                 1.8873
 IR Inten    --    28.1372                 4.7440                51.0053
 Raman Activ --     5.2414                 5.0415                 3.0705

                   106                    107                    108
                     A                      A                      A
 Frequencies --  1477.4536              1499.7649              3267.3843
 Red. masses --     1.0851                 1.3259                 1.0834
 Frc consts  --     1.3955                 1.7571                 6.8147
 IR Inten    --     3.5673                15.6454                28.6025
 Raman Activ --     4.7134                 1.5034                51.2424

                   109                    110                    111
                     A                      A                      A
 Frequencies --  3267.9382              3281.4327              3287.7641
 Red. masses --     1.0585                 1.0589                 1.0821
 Frc consts  --     6.6600                 6.7177                 6.8914
 IR Inten    --    38.3519                32.7281                13.2648
 Raman Activ --    79.7818                52.5953                53.0204

                   112                    113                    114
                     A                      A                      A
 Frequencies --  3292.8043              3293.7793              3295.1316
 Red. masses --     1.0852                 1.0835                 1.0844
 Frc consts  --     6.9323                 6.9258                 6.9374
 IR Inten    --     5.0126                 5.3054                 0.4109
 Raman Activ --    19.4803               167.4358                69.2440

                   115                    116                    117
                     A                      A                      A
 Frequencies --  3298.1926              3304.9361              3307.9723
 Red. masses --     1.0843                 1.0855                 1.0868
 Frc consts  --     6.9494                 6.9858                 7.0067
 IR Inten    --     0.9699                 1.3131                 8.0690
 Raman Activ --    75.9197                73.7581                24.5427

                   118                    119                    120
                     A                      A                      A
 Frequencies --  3312.1938              3319.0180              3327.9473
 Red. masses --     1.0870                 1.0882                 1.1032
 Frc consts  --     7.0258                 7.0629                 7.1988
 IR Inten    --    72.3323                41.2963                51.6518
 Raman Activ --    14.2772                 8.1691                37.4278

                   121                    122                    123
                     A                      A                      A
 Frequencies --  3355.9632              3375.5793              3378.6755
 Red. masses --     1.1079                 1.0671                 1.0663
 Frc consts  --     7.3516                 7.1640                 7.1714
 IR Inten    --    26.0146               287.3522                12.6788
 Raman Activ --    44.5917               187.2930               148.7842

                   124                    125                    126
                     A                      A                      A
 Frequencies --  3392.4740              3393.1763              3396.3882
 Red. masses --     1.0660                 1.0651                 1.0690
 Frc consts  --     7.2282                 7.2252                 7.2657
 IR Inten    --    40.8723                37.4786                12.9624
 Raman Activ --   134.3211               124.4257                61.7368

                   127                    128                    129
                     A                      A                      A
 Frequencies --  3407.5192              3913.3922              3916.5394
 Red. masses --     1.0672                 1.0676                 1.0671
 Frc consts  --     7.3005                 9.6334                 9.6445
 IR Inten    --    49.6995                57.8856                61.1588
 Raman Activ --    92.5622               117.6088               124.7875

 - Thermochemistry -
 -------------------
 Temperature   298.150 Kelvin.  Pressure   1.00000 Atm.
 Atom     1 has atomic number  8 and mass  15.99491

 Molecular mass:   342.11621 amu.
 Principal axes and moments of inertia in atomic units:
                           1         2         3
     Eigenvalues --  4594.82931********************
           X            0.99998  -0.00598   0.00200
           Y            0.00598   0.99998  -0.00071
           Z           -0.00200   0.00072   1.00000
 This molecule is an asymmetric top.
 Rotational symmetry number  1.
 Warning -- assumption of classical behavior for rotation
           may cause significant error
 Rotational temperatures (Kelvin)      0.01885     0.00728     0.00542
 Rotational constants (GHZ):           0.39278     0.15171     0.11291
    7 imaginary frequencies ignored.
 Zero-point vibrational energy     976369.9 (Joules/Mol)
                                  233.35801 (Kcal/Mol)
 Warning -- explicit consideration of  32 degrees of freedom as
           vibrations may cause significant error
 Vibrational temperatures:     22.10    68.41    93.83   139.46   157.32
          (Kelvin)            182.81   218.69   257.21   285.81   307.91
                              365.73   394.05   415.34   421.70   451.50
                              455.95   488.66   506.39   542.12   548.26
                              590.53   618.47   626.92   660.48   685.94
                              711.00   777.57   807.63   817.29   849.17
                              856.20   887.35   940.65   947.27   960.94
                              967.14  1021.01  1066.83  1073.77  1094.00
                             1230.60  1237.73  1361.08  1404.83  1416.88
                             1418.55  1438.22  1443.42  1480.82  1489.57
                             1499.18  1506.79  1532.70  1546.52  1562.12
                             1569.65  1573.59  1588.57  1590.47  1604.64
                             1606.07  1627.82  1642.60  1646.09  1658.14
                             1671.84  1696.03  1698.07  1708.58  1725.96
                             1768.34  1781.70  1783.74  1785.14  1798.87
                             1832.26  1839.96  1847.28  1858.54  1883.79
                             1888.65  1907.53  1925.54  1933.53  1940.61
                             1948.01  1952.08  1965.79  1979.23  1982.51
                             2004.02  2014.78  2032.89  2040.30  2070.75
                             2102.99  2106.76  2115.63  2125.72  2157.82
                             4701.03  4701.83  4721.24  4730.35  4737.61
                             4739.01  4740.95  4745.36  4755.06  4759.43
                             4765.50  4775.32  4788.17  4828.48  4856.70
                             4861.15  4881.01  4882.02  4886.64  4902.65
                             5630.49  5635.02

 Zero-point correction=                           0.371880 (Hartree/Particle)
 Thermal correction to Energy=                    0.390441
 Thermal correction to Enthalpy=                  0.391386
 Thermal correction to Gibbs Free Energy=         0.324730
 Sum of electronic and zero-point Energies=          -1297.567076
 Sum of electronic and thermal Energies=             -1297.548514
 Sum of electronic and thermal Enthalpies=           -1297.547570
 Sum of electronic and thermal Free Energies=        -1297.614225

                     E (Thermal)             CV                S
                      KCal/Mol        Cal/Mol-Kelvin    Cal/Mol-Kelvin
 Total                  245.006             76.073            140.288
 Electronic               0.000              0.000              0.000
 Translational            0.889              2.981             43.384
 Rotational               0.889              2.981             35.123
 Vibrational            243.228             70.111             61.780
 Vibration     1          0.593              1.986              7.159
 Vibration     2          0.595              1.979              4.917
 Vibration     3          0.597              1.971              4.293
 Vibration     4          0.603              1.951              3.515
 Vibration     5          0.606              1.942              3.281
 Vibration     6          0.611              1.926              2.990
 Vibration     7          0.619              1.900              2.647
 Vibration     8          0.629              1.868              2.341
 Vibration     9          0.637              1.842              2.146
 Vibration    10          0.644              1.820              2.009
 Vibration    11          0.665              1.756              1.701
 Vibration    12          0.676              1.722              1.572
 Vibration    13          0.685              1.695              1.482
 Vibration    14          0.688              1.687              1.456
 Vibration    15          0.702              1.647              1.342
 Vibration    16          0.704              1.641              1.326
 Vibration    17          0.720              1.596              1.214
 Vibration    18          0.729              1.571              1.157
 Vibration    19          0.747              1.520              1.052
 Vibration    20          0.751              1.511              1.035
 Vibration    21          0.775              1.448              0.925
 Vibration    22          0.791              1.405              0.859
 Vibration    23          0.796              1.392              0.840
 Vibration    24          0.817              1.341              0.769
 Vibration    25          0.833              1.302              0.719
 Vibration    26          0.850              1.263              0.673
 Vibration    27          0.896              1.161              0.564
 Vibration    28          0.917              1.115              0.521
 Vibration    29          0.924              1.100              0.508
 Vibration    30          0.948              1.053              0.467
 Vibration    31          0.953              1.042              0.458
 Vibration    32          0.976              0.996              0.422

 Normal termination of Gaussian 09 at Thu Jan 21 18:03:09 2016.
