 Gaussian 09, Revision B.01,
 Gaussian 09:  EM64L-G09RevB.01 12-Aug-2010

 ------------------------------------------------
 # freq=raman b3lyp/6-31+g(d,p) geom=connectivity
 ------------------------------------------------

 ------------
 300 9000.com
 ------------
 Symbolic Z-matrix:
 Charge =  0 Multiplicity = 1

                         Standard orientation:
 ---------------------------------------------------------------------
 Center     Atomic      Atomic             Coordinates (Angstroms)
 Number     Number       Type             X           Y           Z
 ---------------------------------------------------------------------
      1          8           0        4.962160   -0.344087   -0.304872
      2          6           0        3.650554   -0.072422    0.210965
      3          6           0        3.103805    1.218151   -0.377630
      4          8           0        4.078940    2.242937   -0.135968
      5          1           0        4.932743    1.862174   -0.493351
      6          6           0        1.785230    1.531907    0.309802
      7          8           0        1.281862    2.779521   -0.190099
      8          1           0        0.417507    2.979783    0.270386
      9          6           0        3.030201   -2.588864   -0.030468
     10          8           0        4.228528   -3.201136   -0.527849
     11          1           0        4.075766   -4.166974   -0.315463
     12          6           0        2.617503   -1.130049   -0.142128
     13          8           0        1.412169   -0.780554    0.552733
     14          6           0        0.835900    0.395910   -0.033285
     15          8           0       -0.332052    0.597077    0.776006
     16          6           0       -1.478956    0.226225   -0.001431
     17          6           0       -1.948574   -1.107709    0.554838
     18          8           0       -0.915346   -2.083975    0.359397
     19          1           0       -0.148445   -1.696472    0.871484
     20          6           0       -3.215929   -1.570901   -0.146378
     21          8           0       -3.795394   -2.788502    0.341970
     22          1           0       -4.671376   -3.069909   -0.048895
     23          6           0       -2.224656    2.670363   -0.349720
     24          8           0       -1.251881    3.391400    0.421115
     25          1           0       -1.488007    4.344008    0.230915
     26          6           0       -2.580493    1.267338    0.114558
     27          8           0       -3.788735    0.769040   -0.478347
     28          6           0       -4.286127   -0.498407   -0.026131
     29          8           0       -5.427367   -0.718846   -0.868072
     30          1           0       -6.188833   -0.934886   -0.324845
     31          1           0       -4.601589   -0.417705    0.993119
     32          1           0       -2.990831   -1.703222   -1.184030
     33          1           0       -2.142658   -1.004394    1.602004
     34          1           0       -1.197687    0.110640   -1.027310
     35          1           0       -2.784920    1.355541    1.161138
     36          1           0       -3.124867    3.248563   -0.364021
     37          1           0       -1.860498    2.600489   -1.353417
     38          1           0        5.554355   -0.553931    0.420987
     39          1           0        2.229899   -3.139273   -0.479318
     40          1           0        3.025135   -2.799652    1.018552
     41          1           0        2.402798   -0.981526   -1.179790
     42          1           0        3.705423    0.022753    1.275311
     43          1           0        2.948730    1.102346   -1.429980
     44          1           0        1.925828    1.588144    1.369033
     45          1           0        0.627693    0.301248   -1.078555
 ---------------------------------------------------------------------

 SCF Done:  E(RB3LYP) =  -1297.92423411     A.U. after   13 cycles

 The electronic state is 1-A.
 Alpha  occ. eigenvalues --  -19.20225 -19.19673 -19.19637 -19.19024 -19.18335
 Alpha  occ. eigenvalues --  -19.17579 -19.17262 -19.16796 -19.15100 -19.15079
 Alpha  occ. eigenvalues --  -19.13949 -10.31214 -10.31116 -10.26548 -10.26096
 Alpha  occ. eigenvalues --  -10.26008 -10.25916 -10.25405 -10.25065 -10.24898
 Alpha  occ. eigenvalues --  -10.24506 -10.24227 -10.24045  -1.11084  -1.08982
 Alpha  occ. eigenvalues --   -1.06243  -1.05525  -1.04458  -1.03288  -1.03083
 Alpha  occ. eigenvalues --   -1.02685  -1.01529  -1.01071  -0.99665  -0.82173
 Alpha  occ. eigenvalues --   -0.80538  -0.79703  -0.78316  -0.72149  -0.70261
 Alpha  occ. eigenvalues --   -0.66946  -0.65335  -0.63570  -0.62026  -0.61863
 Alpha  occ. eigenvalues --   -0.60642  -0.56840  -0.55959  -0.55132  -0.54486
 Alpha  occ. eigenvalues --   -0.53769  -0.53397  -0.53015  -0.52161  -0.51685
 Alpha  occ. eigenvalues --   -0.50870  -0.50280  -0.49215  -0.48488  -0.46826
 Alpha  occ. eigenvalues --   -0.46599  -0.45438  -0.44470  -0.43885  -0.43518
 Alpha  occ. eigenvalues --   -0.43071  -0.42601  -0.40765  -0.40322  -0.39365
 Alpha  occ. eigenvalues --   -0.39104  -0.38252  -0.37719  -0.36984  -0.36023
 Alpha  occ. eigenvalues --   -0.35472  -0.34816  -0.34108  -0.33670  -0.33501
 Alpha  occ. eigenvalues --   -0.32996  -0.31628  -0.31313  -0.30288  -0.29740
 Alpha  occ. eigenvalues --   -0.29468  -0.28437  -0.28219  -0.27312  -0.26809
 Alpha  occ. eigenvalues --   -0.26201
 Alpha virt. eigenvalues --   -0.02216  -0.02098  -0.01983  -0.00238   0.00228
 Alpha virt. eigenvalues --    0.00572   0.01897   0.02223   0.03015   0.03397
 Alpha virt. eigenvalues --    0.03795   0.04317   0.04925   0.05195   0.05579

 Mulliken atomic charges:
              1
     1  O   -0.538324
     2  C   -0.153363
     3  C   -0.075397
     4  O   -0.487643
     5  H    0.360964
     6  C   -0.135872
     7  O   -0.514030
     8  H    0.435354
     9  C   -0.043699
    10  O   -0.495694
    11  H    0.351137
    12  C    0.310134
    13  O   -0.426925
    14  C    0.085463
    15  O   -0.330862
    16  C    0.214036
    17  C   -0.118943
    18  O   -0.466709
    19  H    0.394913
    20  C    0.086527
    21  O   -0.531218
    22  H    0.357026
    23  C    0.003304
    24  O   -0.576329
    25  H    0.378588
    26  C   -0.019816
    27  O   -0.323360
    28  C    0.192256
    29  O   -0.548615
    30  H    0.361160
    31  H    0.125249
    32  H    0.144440
    33  H    0.142624
    34  H    0.116043
    35  H    0.132909
    36  H    0.142007
    37  H    0.149845
    38  H    0.367784
    39  H    0.143889
    40  H    0.128608
    41  H    0.116946
    42  H    0.135766
    43  H    0.133992
    44  H    0.145311
    45  H    0.130525
 Sum of Mulliken atomic charges =   0.00000

 Dipole moment (field-independent basis, Debye):
    X=             -3.2792    Y=             -0.4977    Z=              1.7469  Tot=              3.7487
 Quadrupole moment (field-independent basis, Debye-Ang):
   XX=           -122.3710   YY=           -135.6253   ZZ=           -140.2196
   XY=            -15.4293   XZ=              2.1954   YZ=             -0.8057

  Exact polarizability: 225.562   1.078 192.546   1.050  -0.877 140.772
 Approx polarizability: 263.317   0.051 247.639   0.962   0.298 232.420

 ******    6 imaginary frequencies (negative Signs) ******

                     1                      2                      3
                     A                      A                      A
 Frequencies --  -367.0963              -290.3415              -271.1729
 Red. masses --     1.6589                 1.1830                 1.1266
 Frc consts  --     0.1317                 0.0588                 0.0488
 IR Inten    --     5.6236               123.3949               114.0283
 Raman Activ --     0.1058                 1.0288                 0.7860

                     4                      5                      6
                     A                      A                      A
 Frequencies --  -266.0019               -83.8744               -51.4065
 Red. masses --     1.7256                 7.0918                 6.2764
 Frc consts  --     0.0719                 0.0294                 0.0098
 IR Inten    --     3.1348                 0.6749                 0.2036
 Raman Activ --     0.0559                 0.0780                 0.0484

                     7                      8                      9
                     A                      A                      A
 Frequencies --    26.2422                37.2902                71.8745
 Red. masses --     6.4751                 6.6187                 6.2556
 Frc consts  --     0.0026                 0.0054                 0.0190
 IR Inten    --     1.0046                 0.7199                 1.2806
 Raman Activ --     0.0909                 0.0907                 0.0658

                    10                     11                     12
                     A                      A                      A
 Frequencies --    82.4901               102.8331               121.7482
 Red. masses --     6.1354                 5.7707                 6.6065
 Frc consts  --     0.0246                 0.0360                 0.0577
 IR Inten    --     0.1987                 3.7432                 4.2124
 Raman Activ --     0.2516                 0.1281                 0.0323

                    13                     14                     15
                     A                      A                      A
 Frequencies --   154.3248               171.0314               178.3831
 Red. masses --     6.8914                 5.8642                 6.4015
 Frc consts  --     0.0967                 0.1011                 0.1200
 IR Inten    --     2.0875                 3.0155                 1.2266
 Raman Activ --     0.0969                 0.3373                 0.7156

                    16                     17                     18
                     A                      A                      A
 Frequencies --   220.9799               226.8139               276.8763
 Red. masses --     6.5409                 5.9049                 4.4592
 Frc consts  --     0.1882                 0.1790                 0.2014
 IR Inten    --     1.1807                 2.8006                13.3912
 Raman Activ --     3.0291                 0.0338                 0.5182

                    19                     20                     21
                     A                      A                      A
 Frequencies --   288.5060               297.7246               302.1346
 Red. masses --     5.8492                 4.8763                 4.7477
 Frc consts  --     0.2868                 0.2547                 0.2554
 IR Inten    --     5.8678                 2.7540                 5.9704
 Raman Activ --     0.3436                 1.1752                 0.8655

                    22                     23                     24
                     A                      A                      A
 Frequencies --   309.4946               311.4779               318.6199
 Red. masses --     5.7598                 5.3628                 5.4205
 Frc consts  --     0.3251                 0.3065                 0.3242
 IR Inten    --     7.8705                 3.3051                 3.2900
 Raman Activ --     1.8534                 1.2954                 3.5055

                    25                     26                     27
                     A                      A                      A
 Frequencies --   342.4921               353.0603               391.5276
 Red. masses --     6.9165                 4.9506                 7.5840
 Frc consts  --     0.4780                 0.3636                 0.6850
 IR Inten    --     8.8987                 5.6766                 5.5468
 Raman Activ --     2.1781                 0.4327                 2.4971

                    28                     29                     30
                     A                      A                      A
 Frequencies --   409.1824               430.6749               433.9275
 Red. masses --     4.9580                 4.4285                 5.2638
 Frc consts  --     0.4891                 0.4840                 0.5840
 IR Inten    --    14.1776                 2.4610                 9.3743
 Raman Activ --     1.9006                 6.5859                 0.5549

                    31                     32                     33
                     A                      A                      A
 Frequencies --   442.9117               491.2026               494.4920
 Red. masses --     5.5756                 4.7592                 4.0348
 Frc consts  --     0.6444                 0.6766                 0.5813
 IR Inten    --    16.4732                 6.5020                11.1050
 Raman Activ --     2.4075                 2.1687                 1.5736

                    34                     35                     36
                     A                      A                      A
 Frequencies --   504.5762               550.0141               574.9359
 Red. masses --     4.4541                 2.9743                 4.8495
 Frc consts  --     0.6681                 0.5301                 0.9445
 IR Inten    --     5.3232                 8.7426                 4.4272
 Raman Activ --     2.8563                 2.3887                 2.6117

                    37                     38                     39
                     A                      A                      A
 Frequencies --   589.2473               600.8862               615.9791
 Red. masses --     3.0026                 5.5429                 5.1714
 Frc consts  --     0.6143                 1.1792                 1.1561
 IR Inten    --    51.3959                15.2354                37.9121
 Raman Activ --     0.4997                 0.6305                 0.8252

                    40                     41                     42
                     A                      A                      A
 Frequencies --   640.9340               648.2196               691.8020
 Red. masses --     1.1371                 3.0713                 5.6958
 Frc consts  --     0.2752                 0.7604                 1.6061
 IR Inten    --    59.8912                57.3958                10.9928
 Raman Activ --     2.2518                 1.0336                 1.5067

                    43                     44                     45
                     A                      A                      A
 Frequencies --   713.8018               718.0166               773.7982
 Red. masses --     1.0865                 1.1116                 1.0881
 Frc consts  --     0.3262                 0.3376                 0.3838
 IR Inten    --   116.1416                95.8630               115.1135
 Raman Activ --     1.5829                 1.9353                 1.8985

                    46                     47                     48
                     A                      A                      A
 Frequencies --   806.7336               846.4398               862.3698
 Red. masses --     1.1202                 1.3477                 1.9013
 Frc consts  --     0.4296                 0.5689                 0.8331
 IR Inten    --   203.5235                60.5794                 7.1662
 Raman Activ --     5.8909                 1.2135                 1.6910

                    49                     50                     51
                     A                      A                      A
 Frequencies --   873.0870               942.5121               966.5292
 Red. masses --     1.3106                 4.6342                 4.9798
 Frc consts  --     0.5886                 2.4255                 2.7409
 IR Inten    --    63.7580               198.4465                23.2075
 Raman Activ --     1.2700                 4.5810                 0.2122

                    52                     53                     54
                     A                      A                      A
 Frequencies --   978.1008               990.3645               999.5372
 Red. masses --     4.2730                 3.7473                 5.6165
 Frc consts  --     2.4085                 2.1655                 3.3061
 IR Inten    --    39.3116                22.3331               115.3667
 Raman Activ --     2.1609                 0.7732                 0.9633

                    55                     56                     57
                     A                      A                      A
 Frequencies --  1011.3154              1023.2352              1037.6631
 Red. masses --     5.5710                 5.2009                 5.6757
 Frc consts  --     3.3570                 3.2083                 3.6007
 IR Inten    --   255.6345                28.3716               141.6900
 Raman Activ --     2.1880                 2.5921                 1.3708

                    58                     59                     60
                     A                      A                      A
 Frequencies --  1047.0482              1060.5299              1067.0699
 Red. masses --     6.3728                 3.6280                 2.2306
 Frc consts  --     4.1164                 2.4041                 1.4964
 IR Inten    --   384.4666               163.1272                28.2783
 Raman Activ --     2.5632                 0.9215                 6.6680

                    61                     62                     63
                     A                      A                      A
 Frequencies --  1080.6546              1082.5194              1095.0375
 Red. masses --     3.2173                 2.9547                 4.7791
 Frc consts  --     2.2137                 2.0400                 3.3764
 IR Inten    --    37.8389                 7.8663               198.6096
 Raman Activ --     5.8641                 7.6222                 5.3523

                    64                     65                     66
                     A                      A                      A
 Frequencies --  1102.7360              1109.5927              1111.2501
 Red. masses --     3.4466                 2.4377                 2.6490
 Frc consts  --     2.4693                 1.7683                 1.9273
 IR Inten    --    33.0525               123.6557                25.1712
 Raman Activ --     1.0930                 3.5568                 6.2533

                    67                     68                     69
                     A                      A                      A
 Frequencies --  1117.3286              1122.5043              1130.6412
 Red. masses --     2.5577                 2.3583                 3.3648
 Frc consts  --     1.8813                 1.7508                 2.5343
 IR Inten    --     4.6770                 5.8143                20.6353
 Raman Activ --     6.0008                 5.9082                20.2076

                    70                     71                     72
                     A                      A                      A
 Frequencies --  1149.5692              1158.2163              1162.4414
 Red. masses --     2.9315                 1.9785                 2.0831
 Frc consts  --     2.2825                 1.5637                 1.6584
 IR Inten    --    61.9046                10.0852                 7.8254
 Raman Activ --    10.2602                 3.0367                 2.6425

                    73                     74                     75
                     A                      A                      A
 Frequencies --  1169.5351              1194.7221              1203.0808
 Red. masses --     2.3645                 1.7439                 1.6510
 Frc consts  --     1.9055                 1.4666                 1.4079
 IR Inten    --     0.5835                 3.6958                 8.9467
 Raman Activ --     3.5981                 1.2427                 2.3687

                    76                     77                     78
                     A                      A                      A
 Frequencies --  1209.2871              1217.7087              1226.0510
 Red. masses --     1.7881                 1.3454                 1.6155
 Frc consts  --     1.5406                 1.1754                 1.4308
 IR Inten    --     4.9737                12.0893                 7.8621
 Raman Activ --     4.6997                 1.8032                 0.4787

                    79                     80                     81
                     A                      A                      A
 Frequencies --  1240.1008              1246.7577              1253.0907
 Red. masses --     1.3162                 1.2855                 1.3077
 Frc consts  --     1.1926                 1.1773                 1.2099
 IR Inten    --    16.2435                34.1045                 4.0280
 Raman Activ --     1.1815                 1.4442                 2.0859

                    82                     83                     84
                     A                      A                      A
 Frequencies --  1270.1767              1278.5845              1289.8516
 Red. masses --     1.3469                 1.3228                 1.2697
 Frc consts  --     1.2804                 1.2741                 1.2446
 IR Inten    --    42.0371                17.5332                31.0560
 Raman Activ --     6.4569                 1.1743                 1.0611

                    85                     86                     87
                     A                      A                      A
 Frequencies --  1297.8128              1302.4864              1315.3753
 Red. masses --     1.2527                 1.3486                 1.3095
 Frc consts  --     1.2431                 1.3480                 1.3350
 IR Inten    --     7.3680                27.1434                 2.4824
 Raman Activ --     5.7393                 7.6105                 1.9452

                    88                     89                     90
                     A                      A                      A
 Frequencies --  1324.8373              1331.3005              1331.6564
 Red. masses --     1.3685                 1.3923                 1.1956
 Frc consts  --     1.4152                 1.4539                 1.2492
 IR Inten    --     7.3837                16.7704                22.3675
 Raman Activ --     4.7117                 4.8498                 1.9835

                    91                     92                     93
                     A                      A                      A
 Frequencies --  1337.9421              1343.5446              1365.5518
 Red. masses --     1.3302                 1.1803                 1.2555
 Frc consts  --     1.4029                 1.2553                 1.3794
 IR Inten    --    20.2503                 2.9509                31.8657
 Raman Activ --     2.9509                10.6652                 1.9645

                    94                     95                     96
                     A                      A                      A
 Frequencies --  1367.3201              1378.8944              1381.8608
 Red. masses --     1.2743                 1.4971                 1.3238
 Frc consts  --     1.4037                 1.6771                 1.4894
 IR Inten    --     9.1363                 3.8161                20.1912
 Raman Activ --     2.4604                 7.1513                 6.5776

                    97                     98                     99
                     A                      A                      A
 Frequencies --  1391.8753              1408.7772              1424.6615
 Red. masses --     1.6729                 1.3246                 1.2942
 Frc consts  --     1.9096                 1.5489                 1.5476
 IR Inten    --    35.1136                17.6663                 4.3915
 Raman Activ --     2.4180                 2.4996                13.7548

                   100                    101                    102
                     A                      A                      A
 Frequencies --  1429.6837              1452.4013              1474.3031
 Red. masses --     1.2608                 1.2967                 1.4409
 Frc consts  --     1.5184                 1.6116                 1.8453
 IR Inten    --     4.1283                49.0421                29.1379
 Raman Activ --     4.0297                 1.1094                 0.9638

                   103                    104                    105
                     A                      A                      A
 Frequencies --  1475.8993              1479.5088              1495.7884
 Red. masses --     1.0840                 1.0799                 1.2908
 Frc consts  --     1.3913                 1.3927                 1.7016
 IR Inten    --     4.1898                 5.2789                41.3673
 Raman Activ --     5.5133                 5.9921                 0.6903

                   106                    107                    108
                     A                      A                      A
 Frequencies --  1499.1443              1507.9415              3253.7971
 Red. masses --     1.3508                 1.2858                 1.0586
 Frc consts  --     1.7887                 1.7226                 6.6031
 IR Inten    --    29.3495                36.9023                33.1384
 Raman Activ --     1.5807                 1.5266                96.8030

                   109                    110                    111
                     A                      A                      A
 Frequencies --  3264.7456              3269.6316              3276.3529
 Red. masses --     1.0824                 1.0638                 1.0763
 Frc consts  --     6.7971                 6.7008                 6.8073
 IR Inten    --    16.3736                39.6961                43.9399
 Raman Activ --    22.1363                99.0366                19.6808

                   112                    113                    114
                     A                      A                      A
 Frequencies --  3290.4385              3292.7116              3293.2504
 Red. masses --     1.0848                 1.0840                 1.0835
 Frc consts  --     6.9200                 6.9244                 6.9238
 IR Inten    --     7.1372                 8.9592                15.1637
 Raman Activ --     3.2896               294.9998                13.6356

                   115                    116                    117
                     A                      A                      A
 Frequencies --  3298.6245              3301.7883              3308.9573
 Red. masses --     1.0865                 1.0867                 1.0900
 Frc consts  --     6.9653                 6.9798                 7.0316
 IR Inten    --    15.8285                45.4868               110.5029
 Raman Activ --    33.3087                21.8848               140.3030

                   118                    119                    120
                     A                      A                      A
 Frequencies --  3311.4462              3312.8329              3316.4447
 Red. masses --     1.0931                 1.0816                 1.0824
 Frc consts  --     7.0624                 6.9935                 7.0140
 IR Inten    --    91.1152               292.4636                90.8757
 Raman Activ --    38.5539                83.0558                53.2875

                   121                    122                    123
                     A                      A                      A
 Frequencies --  3324.6404              3329.8795              3346.4408
 Red. masses --     1.0873                 1.1049                 1.0663
 Frc consts  --     7.0809                 7.2182                 7.0358
 IR Inten    --    73.0795               106.4490               465.4368
 Raman Activ --    31.2335                28.3251               113.8951

                   124                    125                    126
                     A                      A                      A
 Frequencies --  3373.5720              3379.8507              3393.1316
 Red. masses --     1.0649                 1.0664                 1.0674
 Frc consts  --     7.1405                 7.1776                 7.2408
 IR Inten    --    39.7282                46.7345                48.4061
 Raman Activ --    94.4326               139.3048               171.5905

                   127                    128                    129
                     A                      A                      A
 Frequencies --  3403.3716              3920.2285              3920.4649
 Red. masses --     1.0667                 1.0676                 1.0677
 Frc consts  --     7.2798                 9.6666                 9.6687
 IR Inten    --    57.1138                95.8608                53.3224
 Raman Activ --   138.2579                83.7239               123.2265

 - Thermochemistry -
 -------------------
 Temperature   298.150 Kelvin.  Pressure   1.00000 Atm.
 Atom     1 has atomic number  8 and mass  15.99491

 Molecular mass:   342.11621 amu.
 Principal axes and moments of inertia in atomic units:
                           1         2         3
     Eigenvalues --  4496.66266********************
           X            0.99997  -0.00787  -0.00019
           Y            0.00787   0.99997  -0.00194
           Z            0.00021   0.00194   1.00000
 This molecule is an asymmetric top.
 Rotational symmetry number  1.
 Warning -- assumption of classical behavior for rotation
           may cause significant error
 Rotational temperatures (Kelvin)      0.01926     0.00722     0.00542
 Rotational constants (GHZ):           0.40135     0.15045     0.11303
    6 imaginary frequencies ignored.
 Zero-point vibrational energy     980612.9 (Joules/Mol)
                                  234.37210 (Kcal/Mol)
 Warning -- explicit consideration of  33 degrees of freedom as
           vibrations may cause significant error
 Vibrational temperatures:     37.76    53.65   103.41   118.68   147.95
          (Kelvin)            175.17   222.04   246.08   256.65   317.94
                              326.33   398.36   415.10   428.36   434.70
                              445.29   448.15   458.42   492.77   507.97
                              563.32   588.72   619.64   624.32   637.25
                              706.73   711.46   725.97   791.35   827.20
                              847.79   864.54   886.26   922.16   932.64
                              995.35  1027.00  1033.06  1113.32  1160.71
                             1217.84  1240.76  1256.18  1356.06  1390.62
                             1407.27  1424.91  1438.11  1455.06  1472.21
                             1492.96  1506.47  1525.86  1535.27  1554.82
                             1557.50  1575.51  1586.59  1596.45  1598.84
                             1607.58  1615.03  1626.74  1653.97  1666.41
                             1672.49  1682.70  1718.94  1730.96  1739.89
                             1752.01  1764.01  1784.23  1793.80  1802.92
                             1827.50  1839.60  1855.81  1867.26  1873.99
                             1892.53  1906.14  1915.44  1915.95  1925.00
                             1933.06  1964.72  1967.27  1983.92  1988.19
                             2002.60  2026.91  2049.77  2056.99  2089.68
                             2121.19  2123.49  2128.68  2152.10  2156.93
                             2169.59  4681.48  4697.23  4704.26  4713.94
                             4734.20  4737.47  4738.25  4745.98  4750.53
                             4760.85  4764.43  4766.42  4771.62  4783.41
                             4790.95  4814.78  4853.81  4862.85  4881.95
                             4896.69  5640.33  5640.67

 Zero-point correction=                           0.373496 (Hartree/Particle)
 Thermal correction to Energy=                    0.392559
 Thermal correction to Enthalpy=                  0.393503
 Thermal correction to Gibbs Free Energy=         0.326105
 Sum of electronic and zero-point Energies=          -1297.550738
 Sum of electronic and thermal Energies=             -1297.531675
 Sum of electronic and thermal Enthalpies=           -1297.530731
 Sum of electronic and thermal Free Energies=        -1297.598129

                     E (Thermal)             CV                S
                      KCal/Mol        Cal/Mol-Kelvin    Cal/Mol-Kelvin
 Total                  246.334             77.335            141.851
 Electronic               0.000              0.000              0.000
 Translational            0.889              2.981             43.384
 Rotational               0.889              2.981             35.109
 Vibrational            244.557             71.373             63.358
 Vibration     1          0.593              1.985              6.095
 Vibration     2          0.594              1.982              5.398
 Vibration     3          0.598              1.967              4.101
 Vibration     4          0.600              1.961              3.831
 Vibration     5          0.605              1.947              3.400
 Vibration     6          0.609              1.931              3.072
 Vibration     7          0.620              1.898              2.618
 Vibration     8          0.626              1.878              2.424
 Vibration     9          0.629              1.869              2.345
 Vibration    10          0.648              1.809              1.951
 Vibration    11          0.650              1.800              1.904
 Vibration    12          0.678              1.716              1.553
 Vibration    13          0.685              1.695              1.483
 Vibration    14          0.691              1.678              1.430
 Vibration    15          0.694              1.670              1.405
 Vibration    16          0.699              1.656              1.365
 Vibration    17          0.700              1.652              1.354
 Vibration    18          0.705              1.638              1.317
 Vibration    19          0.722              1.591              1.201
 Vibration    20          0.729              1.569              1.153
 Vibration    21          0.759              1.488              0.994
 Vibration    22          0.774              1.450              0.930
 Vibration    23          0.792              1.403              0.856
 Vibration    24          0.795              1.396              0.846
 Vibration    25          0.803              1.377              0.818
 Vibration    26          0.847              1.270              0.680
 Vibration    27          0.850              1.262              0.672
 Vibration    28          0.860              1.240              0.647
 Vibration    29          0.905              1.140              0.544
 Vibration    30          0.931              1.085              0.495
 Vibration    31          0.947              1.055              0.469
 Vibration    32          0.959              1.030              0.448
 Vibration    33          0.976              0.998              0.423

 Normal termination of Gaussian 09 at Tue Mar  1 03:19:37 2016.
