 Gaussian 09, Revision B.01,
 Gaussian 09:  EM64L-G09RevB.01 12-Aug-2010

 -------------------------------------------------
 # freq=raman b3lyp/6-31+g(2d,p) geom=connectivity
 -------------------------------------------------

 -------------------
 423 10000/10000.com
 -------------------
 Symbolic Z-matrix:
 Charge =  0 Multiplicity = 1

                         Standard orientation:
 ---------------------------------------------------------------------
 Center     Atomic      Atomic             Coordinates (Angstroms)
 Number     Number       Type             X           Y           Z
 ---------------------------------------------------------------------
      1          8           0       -5.061745   -0.352388    0.353281
      2          6           0       -3.749826    0.018261   -0.095385
      3          6           0       -3.162566    1.323588    0.416119
      4          8           0       -4.018771    2.435339    0.112641
      5          1           0       -4.940274    2.084777    0.276215
      6          6           0       -1.766445    1.582872   -0.124962
      7          8           0       -1.058753    2.672988    0.483729
      8          1           0       -0.213473    2.785250   -0.039000
      9          6           0       -3.077271   -2.490008   -0.169039
     10          8           0       -4.346932   -3.143937   -0.029400
     11          1           0       -4.188531   -4.130264   -0.074673
     12          6           0       -2.783045   -1.080089    0.314951
     13          8           0       -1.533509   -0.851259   -0.351870
     14          6           0       -0.903578    0.353907    0.106748
     15          8           0        0.289770    0.583954   -0.657064
     16          6           0        1.487892    0.217439    0.042013
     17          6           0        1.914186   -1.179021   -0.382080
     18          8           0        0.925843   -2.176166   -0.085761
     19          1           0        0.012370   -1.850461   -0.328970
     20          6           0        3.252852   -1.536682    0.243072
     21          8           0        3.781530   -2.761414   -0.287318
     22          1           0        4.706771   -2.878414    0.072898
     23          6           0        2.356783    2.581135    0.019636
     24          8           0        1.360272    3.314482   -0.706938
     25          1           0        1.684076    4.258916   -0.762687
     26          6           0        2.639809    1.132362   -0.340427
     27          8           0        3.789119    0.737560    0.422947
     28          6           0        4.341411   -0.510320   -0.022899
     29          8           0        5.482917   -0.674653    0.830347
     30          1           0        6.262716   -0.835759    0.294102
     31          1           0       -5.609428   -0.570199   -0.404481
     32          1           0       -2.361089   -3.124745    0.309596
     33          1           0       -2.850896   -2.499252   -1.214777
     34          1           0       -2.641642   -1.074083    1.375549
     35          1           0       -3.768474    0.062455   -1.164309
     36          1           0       -3.089583    1.250780    1.481142
     37          1           0       -1.834492    1.762621   -1.177559
     38          1           0       -0.661403    0.267848    1.145423
     39          1           0        3.277748    3.117390   -0.076038
     40          1           0        2.076238    2.602320    1.051986
     41          1           0        2.846443    1.046691   -1.386784
     42          1           0        1.324956    0.249443    1.099050
     43          1           0        2.048029   -1.165405   -1.443588
     44          1           0        3.124994   -1.641898    1.300182
     45          1           0        4.615799   -0.474716   -1.056506
 ---------------------------------------------------------------------

 SCF Done:  E(RB3LYP) =  -1297.99643881     A.U. after   13 cycles

 The electronic state is 1-A.
 Alpha  occ. eigenvalues --  -19.18793 -19.18767 -19.18759 -19.18356 -19.17568
 Alpha  occ. eigenvalues --  -19.17126 -19.16110 -19.15686 -19.15221 -19.13945
 Alpha  occ. eigenvalues --  -19.13788 -10.30852 -10.30135 -10.26060 -10.25848
 Alpha  occ. eigenvalues --  -10.25378 -10.25238 -10.25076 -10.24533 -10.24485
 Alpha  occ. eigenvalues --  -10.24274 -10.24198 -10.23964  -1.10250  -1.09456
 Alpha  occ. eigenvalues --   -1.05780  -1.05233  -1.04487  -1.03578  -1.02800
 Alpha  occ. eigenvalues --   -1.02535  -1.02185  -1.00715  -1.00212  -0.82253
 Alpha  occ. eigenvalues --   -0.80572  -0.79171  -0.78381  -0.71561  -0.70094
 Alpha  occ. eigenvalues --   -0.67397  -0.64867  -0.63206  -0.62377  -0.61561
 Alpha  occ. eigenvalues --   -0.60578  -0.56876  -0.55848  -0.55350  -0.54582
 Alpha  occ. eigenvalues --   -0.54187  -0.53420  -0.52885  -0.52163  -0.51509
 Alpha  occ. eigenvalues --   -0.50654  -0.49705  -0.49118  -0.48515  -0.46372
 Alpha  occ. eigenvalues --   -0.45935  -0.45125  -0.44720  -0.43764  -0.43466
 Alpha  occ. eigenvalues --   -0.42885  -0.42307  -0.41244  -0.40404  -0.39664
 Alpha  occ. eigenvalues --   -0.39006  -0.38212  -0.37557  -0.36544  -0.36226
 Alpha  occ. eigenvalues --   -0.35537  -0.35097  -0.34566  -0.34189  -0.33788
 Alpha  occ. eigenvalues --   -0.33515  -0.31708  -0.30947  -0.30521  -0.29950
 Alpha  occ. eigenvalues --   -0.29503  -0.28509  -0.27986  -0.27863  -0.26585
 Alpha  occ. eigenvalues --   -0.26458
 Alpha virt. eigenvalues --   -0.02252  -0.02016  -0.01886  -0.00223   0.00355
 Alpha virt. eigenvalues --    0.01031   0.02015   0.02400   0.03285   0.03591
 Alpha virt. eigenvalues --    0.03890   0.04425   0.04933   0.05566   0.05727

 Mulliken atomic charges:
              1
     1  O   -0.529690
     2  C   -0.073053
     3  C    0.337038
     4  O   -0.557002
     5  H    0.338120
     6  C   -0.181214
     7  O   -0.565257
     8  H    0.420737
     9  C   -0.328850
    10  O   -0.549355
    11  H    0.339293
    12  C    0.290298
    13  O   -0.283531
    14  C    0.294805
    15  O   -0.254390
    16  C   -0.011223
    17  C    0.128499
    18  O   -0.584203
    19  H    0.386958
    20  C    0.231181
    21  O   -0.550020
    22  H    0.331782
    23  C   -0.307964
    24  O   -0.554540
    25  H    0.357088
    26  C    0.116592
    27  O   -0.240952
    28  C    0.005741
    29  O   -0.534973
    30  H    0.336320
    31  H    0.346527
    32  H    0.145966
    33  H    0.147326
    34  H    0.115347
    35  H    0.120786
    36  H    0.117512
    37  H    0.132994
    38  H    0.127921
    39  H    0.142341
    40  H    0.163027
    41  H    0.122368
    42  H    0.120338
    43  H    0.118261
    44  H    0.132673
    45  H    0.138377
 Sum of Mulliken atomic charges =   0.00000

 Dipole moment (field-independent basis, Debye):
    X=              3.0787    Y=             -0.0409    Z=             -2.1313  Tot=              3.7446
 Quadrupole moment (field-independent basis, Debye-Ang):
   XX=           -116.2372   YY=           -138.8247   ZZ=           -139.6931
   XY=             15.7378   XZ=             -1.4305   YZ=             -3.9787

  Exact polarizability: 233.245   0.280 195.890   0.843  -0.171 142.787
 Approx polarizability: 274.359   2.101 254.915   1.284  -0.873 239.006

 ******    6 imaginary frequencies (negative Signs) ******

                     1                      2                      3
                     A                      A                      A
 Frequencies --  -308.4478              -259.2946              -253.5540
 Red. masses --     1.6322                 1.7239                 1.1594
 Frc consts  --     0.0915                 0.0683                 0.0439
 IR Inten    --    14.1299                 3.7696                94.9948
 Raman Activ --     0.1236                 0.0438                 0.7900

                     4                      5                      6
                     A                      A                      A
 Frequencies --  -190.1542               -72.6462               -34.3604
 Red. masses --     1.2396                 6.7165                 6.3367
 Frc consts  --     0.0264                 0.0209                 0.0044
 IR Inten    --   103.1955                 0.8782                 0.1166
 Raman Activ --     0.6618                 0.0219                 0.0197

                     7                      8                      9
                     A                      A                      A
 Frequencies --    26.3888                60.7717                80.9382
 Red. masses --     6.6046                 7.1859                 6.6848
 Frc consts  --     0.0027                 0.0156                 0.0258
 IR Inten    --     0.6083                 0.5658                 3.6844
 Raman Activ --     0.0614                 0.0784                 0.0892

                    10                     11                     12
                     A                      A                      A
 Frequencies --    86.3365               102.7902               138.8836
 Red. masses --     6.4165                 6.5800                 5.7964
 Frc consts  --     0.0282                 0.0410                 0.0659
 IR Inten    --     0.8686                 0.8758                 1.5369
 Raman Activ --     0.2292                 0.0513                 0.0718

                    13                     14                     15
                     A                      A                      A
 Frequencies --   155.4707               181.4042               190.6585
 Red. masses --     6.3973                 7.1326                 6.1192
 Frc consts  --     0.0911                 0.1383                 0.1311
 IR Inten    --     4.8867                 0.2639                 2.8994
 Raman Activ --     0.3017                 0.3321                 1.1810

                    16                     17                     18
                     A                      A                      A
 Frequencies --   208.7976               233.6541               258.5990
 Red. masses --     6.3219                 6.4650                 5.3538
 Frc consts  --     0.1624                 0.2080                 0.2109
 IR Inten    --     0.2620                 2.9840                 3.4888
 Raman Activ --     0.6750                 1.6636                 0.2339

                    19                     20                     21
                     A                      A                      A
 Frequencies --   281.2170               288.6584               304.6317
 Red. masses --     4.3168                 5.0603                 4.9982
 Frc consts  --     0.2011                 0.2484                 0.2733
 IR Inten    --    13.5789                 1.4613                 2.3308
 Raman Activ --     0.6999                 0.1342                 0.1087

                    22                     23                     24
                     A                      A                      A
 Frequencies --   314.8390               320.5942               334.0602
 Red. masses --     5.8258                 4.8218                 6.4114
 Frc consts  --     0.3402                 0.2920                 0.4216
 IR Inten    --     8.6431                 3.4121                 3.6333
 Raman Activ --     1.0185                 2.1159                 4.2185

                    25                     26                     27
                     A                      A                      A
 Frequencies --   341.0048               363.6686               392.0039
 Red. masses --     6.7713                 4.4101                 7.7604
 Frc consts  --     0.4639                 0.3436                 0.7026
 IR Inten    --     7.4372                 3.8597                 2.8545
 Raman Activ --     3.2894                 0.2761                 1.7791

                    28                     29                     30
                     A                      A                      A
 Frequencies --   398.9311               421.2587               439.3362
 Red. masses --     5.6592                 6.2394                 4.2856
 Frc consts  --     0.5306                 0.6524                 0.4874
 IR Inten    --     9.1595                 4.2263                19.9670
 Raman Activ --     3.9286                 0.9037                 5.8490

                    31                     32                     33
                     A                      A                      A
 Frequencies --   443.7602               483.7013               495.3054
 Red. masses --     4.7780                 4.3396                 4.5870
 Frc consts  --     0.5544                 0.5982                 0.6630
 IR Inten    --     4.7028                 8.4881                11.5143
 Raman Activ --     1.8154                 3.2240                 0.1336

                    34                     35                     36
                     A                      A                      A
 Frequencies --   516.1822               538.1341               569.6283
 Red. masses --     3.4167                 3.1805                 3.8421
 Frc consts  --     0.5364                 0.5427                 0.7345
 IR Inten    --     7.8868                15.6694                 3.2270
 Raman Activ --     4.8721                 1.3838                 2.0447

                    37                     38                     39
                     A                      A                      A
 Frequencies --   585.0710               611.6338               626.7457
 Red. masses --     2.9866                 6.5651                 5.9507
 Frc consts  --     0.6023                 1.4470                 1.3772
 IR Inten    --    35.3714                 9.6877                20.0705
 Raman Activ --     0.3775                 0.4325                 0.6833

                    40                     41                     42
                     A                      A                      A
 Frequencies --   634.6278               681.8388               694.5000
 Red. masses --     4.1062                 5.0522                 1.0886
 Frc consts  --     0.9744                 1.3839                 0.3093
 IR Inten    --    27.3505                18.3948                96.6638
 Raman Activ --     1.0047                 0.3616                 1.8842

                    43                     44                     45
                     A                      A                      A
 Frequencies --   714.2941               748.8284               758.9472
 Red. masses --     1.0881                 1.0655                 1.0755
 Frc consts  --     0.3271                 0.3520                 0.3650
 IR Inten    --   101.0298                94.1090                92.3058
 Raman Activ --     1.6025                 1.7553                 1.3978

                    46                     47                     48
                     A                      A                      A
 Frequencies --   791.1708               845.4155               855.2383
 Red. masses --     1.0630                 1.8085                 1.5656
 Frc consts  --     0.3920                 0.7616                 0.6747
 IR Inten    --   101.0932                 1.7158                11.1656
 Raman Activ --     1.8464                 1.8078                 0.0677

                    49                     50                     51
                     A                      A                      A
 Frequencies --   893.2661               934.5930               956.7787
 Red. masses --     1.1918                 5.1341                 5.5621
 Frc consts  --     0.5603                 2.6422                 2.9999
 IR Inten    --    66.4943               190.3341                23.3355
 Raman Activ --     0.5942                 4.8865                 0.9970

                    52                     53                     54
                     A                      A                      A
 Frequencies --   967.8930               978.2262               984.3209
 Red. masses --     5.6374                 4.6657                 4.3291
 Frc consts  --     3.1116                 2.6305                 2.4713
 IR Inten    --    58.9053                19.5855                88.0598
 Raman Activ --     1.6214                 1.1961                 3.5278

                    55                     56                     57
                     A                      A                      A
 Frequencies --  1002.5582              1011.1865              1023.6542
 Red. masses --     8.0118                 6.1698                 6.0476
 Frc consts  --     4.7446                 3.7169                 3.7337
 IR Inten    --   273.1995                82.0900               127.6406
 Raman Activ --     1.3121                 1.0158                 2.3049

                    58                     59                     60
                     A                      A                      A
 Frequencies --  1035.3054              1053.4779              1066.2969
 Red. masses --     6.9863                 5.5435                 4.8480
 Frc consts  --     4.4120                 3.6248                 3.2477
 IR Inten    --   394.0927               167.6316                26.5024
 Raman Activ --     2.3600                 5.4150                 0.6448

                    61                     62                     63
                     A                      A                      A
 Frequencies --  1072.3218              1077.0470              1080.8529
 Red. masses --     3.0001                 5.2628                 3.7257
 Frc consts  --     2.0325                 3.5970                 2.5644
 IR Inten    --    17.2190                16.1278                41.3258
 Raman Activ --     6.7814                 3.7935                19.8580

                    64                     65                     66
                     A                      A                      A
 Frequencies --  1097.0666              1103.6046              1107.6285
 Red. masses --     2.6971                 3.2273                 2.6816
 Frc consts  --     1.9125                 2.3159                 1.9384
 IR Inten    --    27.7476                48.9843                99.0246
 Raman Activ --     7.2615                 7.5076                 7.2140

                    67                     68                     69
                     A                      A                      A
 Frequencies --  1112.0529              1121.2504              1133.8039
 Red. masses --     2.4709                 2.8460                 2.8519
 Frc consts  --     1.8004                 2.1081                 2.1601
 IR Inten    --    20.0960                55.8193                60.5092
 Raman Activ --    10.3629                 2.3147                 5.1596

                    70                     71                     72
                     A                      A                      A
 Frequencies --  1138.6496              1140.6034              1158.8278
 Red. masses --     2.2647                 2.0499                 1.7808
 Frc consts  --     1.7300                 1.5713                 1.4090
 IR Inten    --    19.1216                27.0894                 1.1890
 Raman Activ --     4.1759                 7.1181                 1.0256

                    73                     74                     75
                     A                      A                      A
 Frequencies --  1160.0316              1174.0979              1187.6281
 Red. masses --     1.7344                 2.3182                 1.6974
 Frc consts  --     1.3751                 1.8828                 1.4106
 IR Inten    --    15.1878                12.9361                12.0166
 Raman Activ --     2.9531                 1.7088                 1.5008

                    76                     77                     78
                     A                      A                      A
 Frequencies --  1203.7778              1218.2327              1224.4521
 Red. masses --     1.4386                 1.3230                 1.2290
 Frc consts  --     1.2282                 1.1569                 1.0856
 IR Inten    --     6.0847                10.9823                14.5463
 Raman Activ --     2.5909                 0.9527                 1.0827

                    79                     80                     81
                     A                      A                      A
 Frequencies --  1230.7033              1247.5044              1259.0281
 Red. masses --     1.2934                 1.3664                 1.2758
 Frc consts  --     1.1542                 1.2529                 1.1915
 IR Inten    --     3.4082                 2.7324                 5.8823
 Raman Activ --     2.6091                 1.0583                 2.1068

                    82                     83                     84
                     A                      A                      A
 Frequencies --  1279.3860              1283.6104              1286.7299
 Red. masses --     1.2299                 1.3314                 1.2561
 Frc consts  --     1.1861                 1.2925                 1.2253
 IR Inten    --     2.8312                39.4632                19.1270
 Raman Activ --     1.7117                 0.8341                 5.5682

                    85                     86                     87
                     A                      A                      A
 Frequencies --  1297.1856              1306.8893              1307.4557
 Red. masses --     1.3558                 1.3079                 1.3202
 Frc consts  --     1.3442                 1.3162                 1.3297
 IR Inten    --    12.4522                47.5692                30.3949
 Raman Activ --     1.3354                 2.6254                 4.1211

                    88                     89                     90
                     A                      A                      A
 Frequencies --  1314.9314              1325.1680              1325.6088
 Red. masses --     1.3129                 1.1896                 1.2799
 Frc consts  --     1.3375                 1.2309                 1.3251
 IR Inten    --    28.9684                 2.2856                 7.5988
 Raman Activ --     4.6788                12.7847                 9.3212

                    91                     92                     93
                     A                      A                      A
 Frequencies --  1341.5960              1344.4888              1361.1799
 Red. masses --     1.2423                 1.2477                 1.2423
 Frc consts  --     1.3174                 1.3288                 1.3561
 IR Inten    --    23.6776                37.1513                12.2372
 Raman Activ --     3.3005                 2.5345                 7.9226

                    94                     95                     96
                     A                      A                      A
 Frequencies --  1362.3043              1369.0805              1371.2045
 Red. masses --     1.2103                 1.4166                 1.2595
 Frc consts  --     1.3234                 1.5644                 1.3952
 IR Inten    --    20.4778                 7.6532                25.7490
 Raman Activ --     3.6266                 4.1197                 2.6598

                    97                     98                     99
                     A                      A                      A
 Frequencies --  1390.0731              1400.4324              1402.7634
 Red. masses --     1.5118                 1.3621                 1.3970
 Frc consts  --     1.7211                 1.5740                 1.6196
 IR Inten    --    12.7604                 3.4432                 2.5293
 Raman Activ --     4.4141                 2.6178                 6.8925

                   100                    101                    102
                     A                      A                      A
 Frequencies --  1441.2082              1457.1959              1467.6813
 Red. masses --     1.4056                 1.2712                 1.1502
 Frc consts  --     1.7201                 1.5904                 1.4598
 IR Inten    --    40.7122                62.6881                12.6691
 Raman Activ --     0.8992                 1.3755                 4.0982

                   103                    104                    105
                     A                      A                      A
 Frequencies --  1467.9365              1476.3629              1478.3561
 Red. masses --     1.1504                 1.2133                 1.3254
 Frc consts  --     1.4605                 1.5581                 1.7067
 IR Inten    --     6.6887                 5.5408                 5.7518
 Raman Activ --     5.8426                 1.0390                 2.2834

                   106                    107                    108
                     A                      A                      A
 Frequencies --  1481.1628              1483.7614              3256.1948
 Red. masses --     1.4051                 1.3164                 1.0581
 Frc consts  --     1.8162                 1.7076                 6.6102
 IR Inten    --    71.2295                26.2189                31.9129
 Raman Activ --     0.7381                 1.0530                73.4058

                   109                    110                    111
                     A                      A                      A
 Frequencies --  3258.8117              3268.4411              3269.6452
 Red. masses --     1.0597                 1.0800                 1.0812
 Frc consts  --     6.6303                 6.7977                 6.8100
 IR Inten    --   132.5095                21.1963                45.9819
 Raman Activ --    22.3146               201.4003                17.9051

                   112                    113                    114
                     A                      A                      A
 Frequencies --  3275.9843              3277.7689              3279.5236
 Red. masses --     1.0794                 1.0749                 1.0829
 Frc consts  --     6.8253                 6.8039                 6.8622
 IR Inten    --    86.9975               262.1478                50.0690
 Raman Activ --    71.5889               240.6588                 9.5397

                   115                    116                    117
                     A                      A                      A
 Frequencies --  3284.4397              3287.3788              3288.4520
 Red. masses --     1.0832                 1.0848                 1.0873
 Frc consts  --     6.8844                 6.9071                 6.9276
 IR Inten    --    20.9593                 5.8061                 1.8632
 Raman Activ --   135.6714                99.2458                15.8497

                   118                    119                    120
                     A                      A                      A
 Frequencies --  3294.4603              3297.2352              3300.8370
 Red. masses --     1.0851                 1.0745                 1.0887
 Frc consts  --     6.9392                 6.8829                 6.9888
 IR Inten    --    50.6730               676.0852                 7.7972
 Raman Activ --    16.6248                84.8593                22.6636

                   121                    122                    123
                     A                      A                      A
 Frequencies --  3304.7561              3310.0151              3317.1116
 Red. masses --     1.0883                 1.0981                 1.1044
 Frc consts  --     7.0032                 7.0883                 7.1598
 IR Inten    --    75.5013               125.8069                59.4175
 Raman Activ --    24.5652                43.1890                27.2195

                   124                    125                    126
                     A                      A                      A
 Frequencies --  3365.1974              3368.4832              3369.4146
 Red. masses --     1.0657                 1.0676                 1.0656
 Frc consts  --     7.1107                 7.1371                 7.1279
 IR Inten    --    31.1550                37.2557                43.0332
 Raman Activ --   122.2339               120.6660               134.2826

                   127                    128                    129
                     A                      A                      A
 Frequencies --  3375.2732              3891.1574              3892.9933
 Red. masses --     1.0682                 1.0677                 1.0675
 Frc consts  --     7.1703                 9.5244                 9.5316
 IR Inten    --    56.8976                92.7456                74.8007
 Raman Activ --   156.4611                75.6153               121.4545

 - Thermochemistry -
 -------------------
 Temperature   298.150 Kelvin.  Pressure   1.00000 Atm.
 Atom     1 has atomic number  8 and mass  15.99491

 Molecular mass:   342.11621 amu.
 Principal axes and moments of inertia in atomic units:
                           1         2         3
     Eigenvalues --  4397.41739********************
           X            0.99997   0.00764  -0.00057
           Y           -0.00764   0.99997  -0.00011
           Z            0.00056   0.00012   1.00000
 This molecule is an asymmetric top.
 Rotational symmetry number  1.
 Warning -- assumption of classical behavior for rotation
           may cause significant error
 Rotational temperatures (Kelvin)      0.01970     0.00705     0.00534
 Rotational constants (GHZ):           0.41041     0.14689     0.11132
    6 imaginary frequencies ignored.
 Zero-point vibrational energy     976954.1 (Joules/Mol)
                                  233.49763 (Kcal/Mol)
 Warning -- explicit consideration of  32 degrees of freedom as
           vibrations may cause significant error
 Vibrational temperatures:     37.97    87.44   116.45   124.22   147.89
          (Kelvin)            199.82   223.69   261.00   274.31   300.41
                              336.18   372.07   404.61   415.31   438.30
                              452.98   461.26   480.64   490.63   523.24
                              564.01   573.97   606.10   632.11   638.47
                              695.94   712.63   742.67   774.25   819.57
                              841.79   880.00   901.75   913.09   981.01
                              999.23  1027.71  1077.40  1091.95  1138.32
                             1216.36  1230.50  1285.21  1344.67  1376.59
                             1392.58  1407.45  1416.22  1442.46  1454.87
                             1472.81  1489.57  1515.72  1534.16  1542.83
                             1549.63  1555.10  1578.43  1587.84  1593.63
                             1599.99  1613.23  1631.29  1638.26  1641.07
                             1667.29  1669.02  1689.26  1708.73  1731.97
                             1752.76  1761.71  1770.71  1794.88  1811.46
                             1840.75  1846.83  1851.32  1866.36  1880.32
                             1881.13  1891.89  1906.62  1907.25  1930.25
                             1934.42  1958.43  1960.05  1969.80  1972.86
                             2000.00  2014.91  2018.26  2073.57  2096.58
                             2111.66  2112.03  2124.15  2127.02  2131.06
                             2134.80  4684.93  4688.70  4702.55  4704.28
                             4713.40  4715.97  4718.50  4725.57  4729.80
                             4731.34  4739.99  4743.98  4749.16  4754.80
                             4762.37  4772.58  4841.76  4846.49  4847.83
                             4856.26  5598.50  5601.14

 Zero-point correction=                           0.372102 (Hartree/Particle)
 Thermal correction to Energy=                    0.391050
 Thermal correction to Enthalpy=                  0.391994
 Thermal correction to Gibbs Free Energy=         0.325382
 Sum of electronic and zero-point Energies=          -1297.624337
 Sum of electronic and thermal Energies=             -1297.605389
 Sum of electronic and thermal Enthalpies=           -1297.604445
 Sum of electronic and thermal Free Energies=        -1297.671057

                     E (Thermal)             CV                S
                      KCal/Mol        Cal/Mol-Kelvin    Cal/Mol-Kelvin
 Total                  245.388             77.461            140.197
 Electronic               0.000              0.000              0.000
 Translational            0.889              2.981             43.384
 Rotational               0.889              2.981             35.126
 Vibrational            243.610             71.499             61.687
 Vibration     1          0.593              1.985              6.084
 Vibration     2          0.597              1.973              4.432
 Vibration     3          0.600              1.962              3.868
 Vibration     4          0.601              1.959              3.741
 Vibration     5          0.605              1.947              3.401
 Vibration     6          0.614              1.914              2.819
 Vibration     7          0.620              1.897              2.604
 Vibration     8          0.630              1.865              2.314
 Vibration     9          0.634              1.853              2.221
 Vibration    10          0.642              1.827              2.054
 Vibration    11          0.654              1.789              1.851
 Vibration    12          0.667              1.748              1.671
 Vibration    13          0.681              1.708              1.526
 Vibration    14          0.685              1.695              1.482
 Vibration    15          0.696              1.665              1.391
 Vibration    16          0.702              1.645              1.337
 Vibration    17          0.706              1.634              1.307
 Vibration    18          0.716              1.607              1.240
 Vibration    19          0.721              1.594              1.207
 Vibration    20          0.737              1.547              1.106
 Vibration    21          0.759              1.487              0.993
 Vibration    22          0.765              1.472              0.967
 Vibration    23          0.784              1.424              0.888
 Vibration    24          0.799              1.384              0.829
 Vibration    25          0.803              1.375              0.815
 Vibration    26          0.840              1.286              0.700
 Vibration    27          0.851              1.260              0.670
 Vibration    28          0.871              1.214              0.619
 Vibration    29          0.893              1.166              0.569
 Vibration    30          0.926              1.097              0.505
 Vibration    31          0.942              1.064              0.476
 Vibration    32          0.971              1.007              0.430

 Normal termination of Gaussian 09 at Sun Mar 27 04:48:54 2016.
