 Gaussian 09, Revision B.01,
 Gaussian 09:  EM64L-G09RevB.01 12-Aug-2010

 ------------------------------
 # freq=raman b3lyp/6-31+g(d,p)
 ------------------------------

 -----------------------------
 450K 5000ps Cellobiose Unit 1
 -----------------------------
 Symbolic Z-matrix:
 Charge =  0 Multiplicity = 2

                         Standard orientation:
 ---------------------------------------------------------------------
 Center     Atomic      Atomic             Coordinates (Angstroms)
 Number     Number       Type             X           Y           Z
 ---------------------------------------------------------------------
      1          6           0       -4.195983    0.277653   -0.165131
      2          6           0       -3.696640   -1.115236   -0.511986
      3          8           0       -4.631813   -2.034750    0.070701
      4          1           0       -5.507935   -1.953470   -0.404588
      5          6           0       -2.393905   -1.529611    0.152427
      6          8           0       -1.897017   -2.808524   -0.268403
      7          1           0       -2.707968   -3.361579   -0.460182
      8          6           0       -3.515148    2.713277    0.136321
      9          8           0       -2.547335    3.765598    0.013162
     10          1           0       -2.903937    4.637205    0.348509
     11          6           0       -3.108117    1.326019   -0.334177
     12          8           0       -1.961991    0.804644    0.354422
     13          6           0       -1.364188   -0.432059   -0.060108
     14          8           0       -0.196957   -0.528326    0.768720
     15          6           0        1.027230   -0.324089    0.048751
     16          6           0        1.528855    1.083860    0.327281
     17          8           0        0.678224    2.130862   -0.160420
     18          1           0       -0.272513    1.916866    0.064225
     19          6           0        2.859041    1.457262   -0.304001
     20          8           0        3.344997    2.796151   -0.123190
     21          1           0        2.478539    3.288954   -0.202115
     22          6           0        1.719532   -2.718427   -0.092175
     23          8           0        2.641221   -3.817028   -0.086117
     24          1           0        2.763440   -4.133345    0.854228
     25          6           0        2.108940   -1.333078    0.399692
     26          8           0        3.373196   -0.882917   -0.108216
     27          6           0        3.843623    0.429597    0.229133
     28          8           0        5.130487    0.620856   -0.377081
     29          1           0        5.806835    0.221830    0.175125
 ---------------------------------------------------------------------

 SCF Done:  E(UB3LYP) =  -1213.00569494     A.U. after   50 cycles

 The electronic state is 2-A.
 Alpha  occ. eigenvalues --  -19.25407 -19.25314 -19.22795 -19.22306 -19.21621
 Alpha  occ. eigenvalues --  -19.21563 -19.21391 -19.20551 -19.20385 -19.19391
 Alpha  occ. eigenvalues --  -10.35224 -10.32517 -10.32390 -10.32020 -10.31452
 Alpha  occ. eigenvalues --  -10.30879 -10.29627 -10.29538 -10.29259 -10.28733
 Alpha  occ. eigenvalues --  -10.28593 -10.27290  -1.13190  -1.09658  -1.08491
 Alpha  occ. eigenvalues --   -1.07954  -1.07246  -1.06396  -1.05718  -1.05526
 Alpha  occ. eigenvalues --   -1.04226  -1.03344  -0.82128  -0.80383  -0.78423
 Alpha  occ. eigenvalues --   -0.77830  -0.70811  -0.67918  -0.66661  -0.64468
 Alpha  occ. eigenvalues --   -0.63174  -0.61014  -0.56883  -0.56652  -0.55576
 Alpha  occ. eigenvalues --   -0.54986  -0.53544  -0.52234  -0.50726  -0.50443
 Alpha  occ. eigenvalues --   -0.49773  -0.48649  -0.47983  -0.47605  -0.46343
 Alpha  occ. eigenvalues --   -0.45608  -0.44401  -0.44079  -0.42812  -0.41800
 Alpha  occ. eigenvalues --   -0.41767  -0.41557  -0.40596  -0.39865  -0.38935
 Alpha  occ. eigenvalues --   -0.38116  -0.37549  -0.35972  -0.35937  -0.35441
 Alpha  occ. eigenvalues --   -0.33584  -0.32304  -0.32011  -0.29419  -0.28768
 Alpha  occ. eigenvalues --   -0.27101  -0.26647  -0.24196  -0.23454  -0.20383
 Alpha virt. eigenvalues --   -0.16753  -0.11750  -0.10854  -0.08633  -0.07316
 Alpha virt. eigenvalues --   -0.06620  -0.05719  -0.02026  -0.01166  -0.00266
 Alpha virt. eigenvalues --    0.01183   0.01586   0.01884   0.03386   0.04730

  Beta  occ. eigenvalues --  -19.25291 -19.25215 -19.22771 -19.22542 -19.21204
  Beta  occ. eigenvalues --  -19.21159 -19.21140 -19.20790 -19.20196 -19.19207
  Beta  occ. eigenvalues --  -10.34413 -10.32577 -10.32149 -10.31435 -10.31174
  Beta  occ. eigenvalues --  -10.30193 -10.29939 -10.29167 -10.29144 -10.28936
  Beta  occ. eigenvalues --  -10.28917 -10.28183  -1.12869  -1.08820  -1.08249
  Beta  occ. eigenvalues --   -1.08024  -1.07066  -1.06397  -1.05723  -1.04681
  Beta  occ. eigenvalues --   -1.04146  -1.02778  -0.82041  -0.81074  -0.78271
  Beta  occ. eigenvalues --   -0.77028  -0.70485  -0.68011  -0.66559  -0.64268
  Beta  occ. eigenvalues --   -0.63326  -0.60558  -0.56845  -0.56488  -0.55709
  Beta  occ. eigenvalues --   -0.54698  -0.53455  -0.51488  -0.50219  -0.49940
  Beta  occ. eigenvalues --   -0.49598  -0.48208  -0.47429  -0.47024  -0.45476
  Beta  occ. eigenvalues --   -0.44914  -0.43486  -0.43001  -0.42588  -0.41809
  Beta  occ. eigenvalues --   -0.41230  -0.41022  -0.40474  -0.39613  -0.39094
  Beta  occ. eigenvalues --   -0.38072  -0.36485  -0.36099  -0.35925  -0.35021
  Beta  occ. eigenvalues --   -0.33054  -0.33005  -0.31991  -0.29747  -0.28711
  Beta  occ. eigenvalues --   -0.27747  -0.26284  -0.24700  -0.21548
  Beta virt. eigenvalues --   -0.14522  -0.12072  -0.10957  -0.09216  -0.08455
  Beta virt. eigenvalues --   -0.07245  -0.06532  -0.05183  -0.02027  -0.01218
  Beta virt. eigenvalues --   -0.00081   0.01267   0.01499   0.01890   0.03537

 Mulliken atomic charges:
              1
     1  C   -0.128569
     2  C    0.407296
     3  O   -0.497627
     4  H    0.366338
     5  C   -0.377617
     6  O   -0.376417
     7  H    0.369349
     8  C   -0.140172
     9  O   -0.468136
    10  H    0.406558
    11  C    0.307577
    12  O   -0.289064
    13  C    0.560777
    14  O   -0.269821
    15  C    0.499713
    16  C    0.265579
    17  O   -0.516750
    18  H    0.411476
    19  C   -0.121325
    20  O   -0.402617
    21  H    0.376121
    22  C   -0.133977
    23  O   -0.415941
    24  H    0.368104
    25  C   -0.132816
    26  O   -0.235337
    27  C    0.294113
    28  O   -0.484381
    29  H    0.357564
 Sum of Mulliken atomic charges =   0.00000

 Dipole moment (field-independent basis, Debye):
    X=             -4.0930    Y=              0.3108    Z=              1.8048  Tot=              4.4840
 Quadrupole moment (field-independent basis, Debye-Ang):
   XX=           -112.6005   YY=           -108.7806   ZZ=           -128.1283
   XY=             -5.1576   XZ=             17.1720   YZ=             -2.1991

  Exact polarizability: 318.534   3.059 336.987   6.504   4.647 115.962
 Approx polarizability: 425.301  30.709 569.489  10.330  14.197 217.151

 ******    3 imaginary frequencies (negative Signs) ******

                     1                      2                      3
                     A                      A                      A
 Frequencies --  -336.9753              -182.5906              -110.2007
 Red. masses --     1.0617                 8.3827                 5.2821
 Frc consts  --     0.0710                 0.1647                 0.0378
 IR Inten    --   113.7393               377.6248                46.4215
 Raman Activ --    23.5503              6586.6695                92.9315

                     4                      5                      6
                     A                      A                      A
 Frequencies --    79.9462                88.7633               106.8432
 Red. masses --     9.2813                 9.5459                 9.2397
 Frc consts  --     0.0350                 0.0443                 0.0621
 IR Inten    --     2.4513                 0.5916                14.0650
 Raman Activ --    37.9308                 5.6457                96.1172

                     7                      8                      9
                     A                      A                      A
 Frequencies --   138.1616               145.1808               149.4822
 Red. masses --     6.6255                 9.1373                 8.8645
 Frc consts  --     0.0745                 0.1135                 0.1167
 IR Inten    --    12.6836                 1.8026                17.7804
 Raman Activ --    33.8586                 4.5514               500.2461

                    10                     11                     12
                     A                      A                      A
 Frequencies --   162.2016               180.5676               211.2694
 Red. masses --     8.2074                 9.2686                 8.5224
 Frc consts  --     0.1272                 0.1781                 0.2241
 IR Inten    --     0.7176                17.1853                 1.0130
 Raman Activ --     8.9710                43.9998                43.0257

                    13                     14                     15
                     A                      A                      A
 Frequencies --   232.2056               239.7656               253.8074
 Red. masses --     5.4800                 9.4720                10.1314
 Frc consts  --     0.1741                 0.3208                 0.3845
 IR Inten    --    24.1114                65.1749                27.1793
 Raman Activ --   128.4370               676.6266              1039.5064

                    16                     17                     18
                     A                      A                      A
 Frequencies --   270.0108               293.5344               301.8783
 Red. masses --    11.1870                 8.2717                 6.7282
 Frc consts  --     0.4805                 0.4199                 0.3613
 IR Inten    --    20.3217                 9.7419                 0.5051
 Raman Activ --    38.3742                47.3178                 2.9074

                    19                     20                     21
                     A                      A                      A
 Frequencies --   308.6699               314.6865               326.5359
 Red. masses --     6.6345                 7.7475                11.9860
 Frc consts  --     0.3724                 0.4520                 0.7530
 IR Inten    --     2.6526                 6.7411                22.6756
 Raman Activ --     4.4246                49.4184               119.2966

                    22                     23                     24
                     A                      A                      A
 Frequencies --   335.6112               350.0690               356.7365
 Red. masses --     7.8707                 7.0354                 9.5804
 Frc consts  --     0.5223                 0.5080                 0.7183
 IR Inten    --    13.6129                 9.1064                10.7301
 Raman Activ --    95.6527                38.6595               403.0176

                    25                     26                     27
                     A                      A                      A
 Frequencies --   402.6350               419.3751               442.7887
 Red. masses --     9.3551                 6.8146                 7.1221
 Frc consts  --     0.8936                 0.7061                 0.8227
 IR Inten    --    44.6831                60.0963                33.7949
 Raman Activ --   274.8925               391.5520               418.5315

                    28                     29                     30
                     A                      A                      A
 Frequencies --   446.3582               469.8389               484.0217
 Red. masses --     7.7354                10.0499                 9.9410
 Frc consts  --     0.9080                 1.3071                 1.3722
 IR Inten    --    24.9519                32.5968                87.1947
 Raman Activ --   121.1978               114.2671              1637.8981

                    31                     32                     33
                     A                      A                      A
 Frequencies --   502.4753               515.9105               523.2043
 Red. masses --     3.2731                 8.1778                 4.1923
 Frc consts  --     0.4869                 1.2824                 0.6761
 IR Inten    --    85.2119                42.0005                17.5676
 Raman Activ --    61.1036               328.4163               320.5909

                    34                     35                     36
                     A                      A                      A
 Frequencies --   556.2614               583.3670               604.3652
 Red. masses --     8.4408                 8.8457                 8.2851
 Frc consts  --     1.5388                 1.7736                 1.7830
 IR Inten    --   110.4888                15.5815                98.0628
 Raman Activ --  2944.1328                11.7715               192.7724

                    37                     38                     39
                     A                      A                      A
 Frequencies --   617.1915               626.8084               641.0465
 Red. masses --     7.4608                 9.7438                 9.0183
 Frc consts  --     1.6745                 2.2555                 2.1835
 IR Inten    --    59.4711                33.9858                20.1666
 Raman Activ --    88.9347              1024.4905               199.3390

                    40                     41                     42
                     A                      A                      A
 Frequencies --   656.4695               683.9423               700.5153
 Red. masses --     8.5069                 7.0285                 1.3530
 Frc consts  --     2.1600                 1.9371                 0.3912
 IR Inten    --   112.1028                39.6717                39.3210
 Raman Activ --    57.1994                43.3545               444.6902

                    43                     44                     45
                     A                      A                      A
 Frequencies --   735.7048               748.3339               764.3115
 Red. masses --     6.4102                 1.2358                 2.2183
 Frc consts  --     2.0442                 0.4077                 0.7635
 IR Inten    --    62.5770               231.5271                72.2770
 Raman Activ --    75.6819               153.8048               200.1234

                    46                     47                     48
                     A                      A                      A
 Frequencies --   770.7837               797.7070               820.1036
 Red. masses --     1.6285                 1.2551                 5.7107
 Frc consts  --     0.5700                 0.4706                 2.2630
 IR Inten    --   113.4721                 9.1054               303.3301
 Raman Activ --   137.4511                26.9811                16.7611

                    49                     50                     51
                     A                      A                      A
 Frequencies --   833.2838               849.1106               854.3635
 Red. masses --     4.8554                 4.1243                 2.2258
 Frc consts  --     1.9864                 1.7520                 0.9572
 IR Inten    --   159.0040                97.5589               119.5797
 Raman Activ --   785.7577               351.4374               468.0063

                    52                     53                     54
                     A                      A                      A
 Frequencies --   866.3350               882.8060               897.2630
 Red. masses --     6.1000                 7.6260                 5.7026
 Frc consts  --     2.6975                 3.5017                 2.7050
 IR Inten    --   340.8324               293.4123                14.9867
 Raman Activ --    72.4286                80.4601               337.4752

                    55                     56                     57
                     A                      A                      A
 Frequencies --   916.6190               933.3548               946.4228
 Red. masses --     6.5660                 6.7423                 8.1742
 Frc consts  --     3.2503                 3.4606                 4.3139
 IR Inten    --     9.8471               300.8699               148.8703
 Raman Activ --    87.5556                39.0553                78.3052

                    58                     59                     60
                     A                      A                      A
 Frequencies --   957.9492               977.7529               998.8696
 Red. masses --     7.8000                10.5482                 9.2858
 Frc consts  --     4.2173                 5.9414                 5.4586
 IR Inten    --   368.3077               139.2141                88.5245
 Raman Activ --    44.2101                14.1747                20.6104

                    61                     62                     63
                     A                      A                      A
 Frequencies --  1009.1449              1038.7802              1054.6007
 Red. masses --    10.3785                 7.5983                 5.5800
 Frc consts  --     6.2272                 4.8308                 3.6565
 IR Inten    --    29.8535               484.5735               122.6035
 Raman Activ --   769.7945              1308.1832                38.6429

                    64                     65                     66
                     A                      A                      A
 Frequencies --  1076.6644              1086.9625              1095.6726
 Red. masses --     4.8452                 9.2509                 6.0717
 Frc consts  --     3.3092                 6.4397                 4.2946
 IR Inten    --   368.5771                18.7131               431.9665
 Raman Activ --   144.6516               170.4854               175.1512

                    67                     68                     69
                     A                      A                      A
 Frequencies --  1123.1944              1193.2163              1213.9092
 Red. masses --     7.7491                 1.2011                 1.6825
 Frc consts  --     5.7599                 1.0076                 1.4607
 IR Inten    --    16.9497                22.2978                18.2282
 Raman Activ --    25.2265                32.2697                23.3587

                    70                     71                     72
                     A                      A                      A
 Frequencies --  1269.5121              1356.7944              1390.1468
 Red. masses --     1.1449                 1.1824                 1.2642
 Frc consts  --     1.0872                 1.2825                 1.4395
 IR Inten    --   137.2040                90.8344               105.9400
 Raman Activ --   110.4352                21.5869               388.5375

                    73                     74                     75
                     A                      A                      A
 Frequencies --  1393.5475              1450.4253              3358.4018
 Red. masses --     1.2499                 1.2516                 1.0669
 Frc consts  --     1.4302                 1.5513                 7.0896
 IR Inten    --    28.3870               108.9164               498.2420
 Raman Activ --     8.2493                11.3792               126.2050

                    76                     77                     78
                     A                      A                      A
 Frequencies --  3390.2878              3396.4207              3398.0868
 Red. masses --     1.0661                 1.0667                 1.0645
 Frc consts  --     7.2194                 7.2496                 7.2422
 IR Inten    --   107.6809               119.3224                48.0183
 Raman Activ --   467.5232               204.9086               100.1318

                    79                     80                     81
                     A                      A                      A
 Frequencies --  3399.0869              3408.8921              3919.5579
 Red. masses --     1.0658                 1.0675                 1.0669
 Frc consts  --     7.2551                 7.3089                 9.6568
 IR Inten    --   134.4089               261.7877               130.1414
 Raman Activ --   109.5389               334.4513               277.8747

 - Thermochemistry -
 -------------------
 Temperature   298.150 Kelvin.  Pressure   1.00000 Atm.
 Atom     1 has atomic number  6 and mass  12.00000

 Molecular mass:   311.00392 amu.
 Principal axes and moments of inertia in atomic units:
                           1         2         3
     Eigenvalues --  4601.194879731.85479**********
           X            0.99999   0.00270   0.00197
           Y           -0.00270   1.00000  -0.00006
           Z           -0.00197   0.00005   1.00000
 This molecule is an asymmetric top.
 Rotational symmetry number  1.
 Warning -- assumption of classical behavior for rotation
           may cause significant error
 Rotational temperatures (Kelvin)      0.01882     0.00890     0.00613
 Rotational constants (GHZ):           0.39223     0.18545     0.12767
    3 imaginary frequencies ignored.
 Zero-point vibrational energy     426450.1 (Joules/Mol)
                                  101.92401 (Kcal/Mol)
 Warning -- explicit consideration of  34 degrees of freedom as
           vibrations may cause significant error
 Vibrational temperatures:    115.02   127.71   153.72   198.78   208.88
          (Kelvin)            215.07   233.37   259.80   303.97   334.09
                              344.97   365.17   388.48   422.33   434.33
                              444.11   452.76   469.81   482.87   503.67
                              513.26   579.30   603.39   637.07   642.21
                              675.99   696.40   722.95   742.28   752.77
                              800.34   839.33   869.55   888.00   901.84
                              922.32   944.51   984.04  1007.88  1058.51
                             1076.68  1099.67  1108.98  1147.72  1179.94
                             1198.91  1221.68  1229.24  1246.46  1270.16
                             1290.96  1318.81  1342.89  1361.69  1378.27
                             1406.77  1437.15  1451.93  1494.57  1517.33
                             1549.08  1563.89  1576.43  1616.02  1716.77
                             1746.54  1826.54  1952.12  2000.11  2005.00
                             2086.84  4831.99  4877.86  4886.69  4889.08
                             4890.52  4904.63  5639.36

 Zero-point correction=                           0.162426 (Hartree/Particle)
 Thermal correction to Energy=                    0.181325
 Thermal correction to Enthalpy=                  0.182269
 Thermal correction to Gibbs Free Energy=         0.117263
 Sum of electronic and zero-point Energies=          -1212.843269
 Sum of electronic and thermal Energies=             -1212.824370
 Sum of electronic and thermal Enthalpies=           -1212.823426
 Sum of electronic and thermal Free Energies=        -1212.888432

                     E (Thermal)             CV                S
                      KCal/Mol        Cal/Mol-Kelvin    Cal/Mol-Kelvin
 Total                  113.783             77.080            136.816
 Electronic               0.000              0.000              1.377
 Translational            0.889              2.981             43.100
 Rotational               0.889              2.981             34.803
 Vibrational            112.005             71.119             57.536
 Vibration     1          0.600              1.963              3.892
 Vibration     2          0.602              1.957              3.687
 Vibration     3          0.606              1.944              3.325
 Vibration     4          0.614              1.915              2.829
 Vibration     5          0.617              1.908              2.734
 Vibration     6          0.618              1.903              2.679
 Vibration     7          0.622              1.889              2.524
 Vibration     8          0.630              1.866              2.323
 Vibration     9          0.643              1.824              2.033
 Vibration    10          0.653              1.792              1.862
 Vibration    11          0.657              1.780              1.805
 Vibration    12          0.665              1.756              1.704
 Vibration    13          0.674              1.728              1.596
 Vibration    14          0.688              1.686              1.454
 Vibration    15          0.694              1.670              1.406
 Vibration    16          0.698              1.657              1.369
 Vibration    17          0.702              1.646              1.338
 Vibration    18          0.710              1.622              1.277
 Vibration    19          0.717              1.604              1.233
 Vibration    20          0.727              1.575              1.166
 Vibration    21          0.732              1.561              1.136
 Vibration    22          0.768              1.464              0.953
 Vibration    23          0.782              1.428              0.894
 Vibration    24          0.802              1.377              0.818
 Vibration    25          0.806              1.369              0.807
 Vibration    26          0.827              1.317              0.738
 Vibration    27          0.840              1.285              0.699
 Vibration    28          0.858              1.245              0.652
 Vibration    29          0.871              1.215              0.620
 Vibration    30          0.878              1.199              0.603
 Vibration    31          0.912              1.126              0.531
 Vibration    32          0.940              1.067              0.479
 Vibration    33          0.963              1.023              0.442
 Vibration    34          0.977              0.996              0.421

 Normal termination of Gaussian 09 at Mon Oct  5 23:02:44 2015.
