 Gaussian 09, Revision B.01,
 Gaussian 09:  EM64L-G09RevB.01 12-Aug-2010

 -------------------------------------------------
 # freq=raman b3lyp/6-31+g(2d,p) geom=connectivity
 -------------------------------------------------

 -----------------
 280 7902/7902.com
 -----------------
 Symbolic Z-matrix:
 Charge =  0 Multiplicity = 1

                         Standard orientation:
 ---------------------------------------------------------------------
 Center     Atomic      Atomic             Coordinates (Angstroms)
 Number     Number       Type             X           Y           Z
 ---------------------------------------------------------------------
      1          8           0       -5.042967   -0.529350    0.125429
      2          6           0       -3.713658   -0.138684   -0.250632
      3          6           0       -3.272986    1.137691    0.445510
      4          8           0       -4.257202    2.149505    0.182709
      5          1           0       -5.171399    1.773624    0.334802
      6          6           0       -1.958508    1.556160   -0.192162
      7          8           0       -1.430878    2.869339    0.044950
      8          1           0       -0.437170    2.867755   -0.069678
      9          6           0       -2.907568   -2.561096   -0.155813
     10          8           0       -4.155930   -3.186606    0.178042
     11          1           0       -4.044009   -4.177566    0.253091
     12          6           0       -2.696060   -1.126615    0.297138
     13          8           0       -1.408899   -0.798875   -0.246437
     14          6           0       -0.952227    0.485835    0.198509
     15          8           0        0.300181    0.650167   -0.481107
     16          6           0        1.546498    0.187945    0.059442
     17          6           0        2.046238   -1.152487   -0.455398
     18          8           0        1.059995   -2.073920    0.030620
     19          1           0        0.179061   -1.602803   -0.002257
     20          6           0        3.395213   -1.551164    0.118858
     21          8           0        3.943362   -2.774736   -0.392763
     22          1           0        4.853100   -2.832304    0.018035
     23          6           0        2.351632    2.653407    0.094494
     24          8           0        1.163112    3.337032   -0.330129
     25          1           0        1.243848    4.289754   -0.034456
     26          6           0        2.570977    1.224360   -0.373708
     27          8           0        3.824078    0.892415    0.241839
     28          6           0        4.368276   -0.397880   -0.068920
     29          8           0        5.442134   -0.618175    0.856852
     30          1           0        6.237236   -0.855496    0.374057
     31          1           0       -5.536626   -0.780383   -0.658715
     32          1           0        3.190549    3.232060   -0.231510
     33          1           0        2.354965    2.646438    1.164466
     34          1           0        2.676141    1.205398   -1.438359
     35          1           0        1.488707    0.164290    1.127618
     36          1           0        2.072895   -1.159848   -1.525040
     37          1           0        3.261464   -1.684127    1.172106
     38          1           0        4.746288   -0.401041   -1.069919
     39          1           0       -2.122769   -3.154763    0.264366
     40          1           0       -2.805285   -2.585225   -1.220639
     41          1           0       -2.668750   -1.076373    1.365609
     42          1           0       -3.623985   -0.046515   -1.312877
     43          1           0       -3.155961    0.979851    1.497314
     44          1           0       -2.097685    1.476622   -1.250086
     45          1           0       -0.803472    0.481458    1.258110
 ---------------------------------------------------------------------

 SCF Done:  E(RB3LYP) =  -1297.98736950     A.U. after   13 cycles

 The electronic state is 1-A.
 Alpha  occ. eigenvalues --  -19.18807 -19.18646 -19.18328 -19.18129 -19.17902
 Alpha  occ. eigenvalues --  -19.16861 -19.16835 -19.15874 -19.14514 -19.13519
 Alpha  occ. eigenvalues --  -19.13020 -10.30839 -10.30715 -10.26096 -10.25923
 Alpha  occ. eigenvalues --  -10.25342 -10.25191 -10.25028 -10.24733 -10.24494
 Alpha  occ. eigenvalues --  -10.24421 -10.24243 -10.23785  -1.10466  -1.09183
 Alpha  occ. eigenvalues --   -1.05634  -1.05128  -1.04195  -1.03949  -1.03010
 Alpha  occ. eigenvalues --   -1.02216  -1.01425  -1.00869  -0.99543  -0.82284
 Alpha  occ. eigenvalues --   -0.81140  -0.79522  -0.78441  -0.72021  -0.69866
 Alpha  occ. eigenvalues --   -0.67528  -0.64426  -0.63060  -0.62240  -0.61887
 Alpha  occ. eigenvalues --   -0.60948  -0.56709  -0.55971  -0.55268  -0.54690
 Alpha  occ. eigenvalues --   -0.53929  -0.53591  -0.52753  -0.51791  -0.51487
 Alpha  occ. eigenvalues --   -0.50952  -0.50183  -0.49006  -0.48633  -0.46504
 Alpha  occ. eigenvalues --   -0.46195  -0.45577  -0.44022  -0.43860  -0.43237
 Alpha  occ. eigenvalues --   -0.42817  -0.41971  -0.41423  -0.40430  -0.39580
 Alpha  occ. eigenvalues --   -0.39215  -0.38470  -0.37727  -0.36361  -0.35876
 Alpha  occ. eigenvalues --   -0.35392  -0.35177  -0.34090  -0.33630  -0.33550
 Alpha  occ. eigenvalues --   -0.33112  -0.31536  -0.30689  -0.30214  -0.30089
 Alpha  occ. eigenvalues --   -0.29333  -0.28746  -0.28562  -0.26651  -0.26624
 Alpha  occ. eigenvalues --   -0.26223
 Alpha virt. eigenvalues --   -0.02231  -0.01833  -0.01699  -0.00270   0.00311
 Alpha virt. eigenvalues --    0.00921   0.01975   0.02088   0.03019   0.03404
 Alpha virt. eigenvalues --    0.04070   0.04456   0.04632   0.05231   0.05709

 Mulliken atomic charges:
              1
     1  O   -0.556329
     2  C   -0.015521
     3  C    0.159487
     4  O   -0.554196
     5  H    0.346383
     6  C   -0.035027
     7  O   -0.619131
     8  H    0.439379
     9  C   -0.264973
    10  O   -0.544620
    11  H    0.343647
    12  C    0.215682
    13  O   -0.244667
    14  C    0.184803
    15  O   -0.251368
    16  C    0.067757
    17  C    0.309430
    18  O   -0.586936
    19  H    0.395803
    20  C    0.064807
    21  O   -0.543649
    22  H    0.326942
    23  C   -0.200592
    24  O   -0.554355
    25  H    0.354206
    26  C   -0.102368
    27  O   -0.253056
    28  C    0.126890
    29  O   -0.532869
    30  H    0.335013
    31  H    0.344784
    32  H    0.150279
    33  H    0.153976
    34  H    0.125313
    35  H    0.126502
    36  H    0.124674
    37  H    0.137323
    38  H    0.128795
    39  H    0.146483
    40  H    0.143364
    41  H    0.113573
    42  H    0.128358
    43  H    0.117776
    44  H    0.120336
    45  H    0.127892
 Sum of Mulliken atomic charges =   0.00000

 Dipole moment (field-independent basis, Debye):
    X=              3.0234    Y=             -0.6418    Z=             -0.8848  Tot=              3.2149
 Quadrupole moment (field-independent basis, Debye-Ang):
   XX=           -119.2098   YY=           -139.9071   ZZ=           -137.2971
   XY=             16.3926   XZ=              0.1223   YZ=              0.5798

  Exact polarizability: 234.532  -2.095 196.968   0.503   0.547 142.922
 Approx polarizability: 275.511  -2.232 257.259   0.607  -0.385 237.477

 ******    6 imaginary frequencies (negative Signs) ******

                     1                      2                      3
                     A                      A                      A
 Frequencies --  -292.3961              -250.4431              -241.5574
 Red. masses --     1.2202                 1.8110                 1.5538
 Frc consts  --     0.0615                 0.0669                 0.0534
 IR Inten    --    84.9319                 2.2680                19.4550
 Raman Activ --     0.5793                 0.0643                 0.2833

                     4                      5                      6
                     A                      A                      A
 Frequencies --  -219.0932               -76.6831               -52.8661
 Red. masses --     1.2694                 6.7032                 6.4233
 Frc consts  --     0.0359                 0.0232                 0.0106
 IR Inten    --   114.3136                 1.4148                 0.5806
 Raman Activ --     0.9512                 0.0118                 0.0214

                     7                      8                      9
                     A                      A                      A
 Frequencies --    40.8733                52.0277                68.4598
 Red. masses --     6.6401                 6.6575                 6.6108
 Frc consts  --     0.0065                 0.0106                 0.0183
 IR Inten    --     0.8596                 0.7520                 3.0126
 Raman Activ --     0.0250                 0.0361                 0.1532

                    10                     11                     12
                     A                      A                      A
 Frequencies --    79.6833                97.5132               127.5083
 Red. masses --     6.8532                 5.7340                 6.8175
 Frc consts  --     0.0256                 0.0321                 0.0653
 IR Inten    --     1.2965                 1.9418                 1.2915
 Raman Activ --     0.1855                 0.1359                 0.0412

                    13                     14                     15
                     A                      A                      A
 Frequencies --   147.9003               175.4800               199.1474
 Red. masses --     5.9928                 6.3359                 7.5273
 Frc consts  --     0.0772                 0.1150                 0.1759
 IR Inten    --     4.1951                 1.7172                 0.2673
 Raman Activ --     0.1645                 0.8106                 0.8856

                    16                     17                     18
                     A                      A                      A
 Frequencies --   208.1989               238.0291               271.3273
 Red. masses --     6.8661                 5.8532                 4.5868
 Frc consts  --     0.1754                 0.1954                 0.1990
 IR Inten    --     0.4234                 1.6996                 2.8576
 Raman Activ --     2.4567                 0.2938                 0.2457

                    19                     20                     21
                     A                      A                      A
 Frequencies --   294.3922               296.7914               304.5827
 Red. masses --     4.6969                 5.1811                 4.6044
 Frc consts  --     0.2398                 0.2689                 0.2517
 IR Inten    --     9.3730                 4.1000                 6.7444
 Raman Activ --     0.5150                 0.0358                 0.1871

                    22                     23                     24
                     A                      A                      A
 Frequencies --   313.5525               317.4522               329.4488
 Red. masses --     4.7053                 5.5076                 6.5201
 Frc consts  --     0.2726                 0.3270                 0.4169
 IR Inten    --    14.3484                 2.3861                 6.1843
 Raman Activ --     0.1589                 3.2188                 2.5496

                    25                     26                     27
                     A                      A                      A
 Frequencies --   344.3639               363.5280               384.5833
 Red. masses --     6.7445                 5.0091                 5.9626
 Frc consts  --     0.4712                 0.3900                 0.5196
 IR Inten    --     8.0036                 5.7283                 4.4517
 Raman Activ --     3.7689                 0.0707                 1.1237

                    28                     29                     30
                     A                      A                      A
 Frequencies --   406.0065               426.8973               434.3868
 Red. masses --     4.6812                 6.4429                 5.6016
 Frc consts  --     0.4546                 0.6918                 0.6228
 IR Inten    --    20.1611                 3.4462                 0.7236
 Raman Activ --     1.2186                 5.4609                 3.7307

                    31                     32                     33
                     A                      A                      A
 Frequencies --   450.1309               491.0450               491.9531
 Red. masses --     4.9759                 4.0944                 3.9983
 Frc consts  --     0.5940                 0.5817                 0.5701
 IR Inten    --     1.4448                 0.7538                13.1208
 Raman Activ --     2.6793                 1.8028                 2.0028

                    34                     35                     36
                     A                      A                      A
 Frequencies --   529.9620               539.9413               576.7367
 Red. masses --     4.5417                 3.2086                 3.7953
 Frc consts  --     0.7515                 0.5511                 0.7438
 IR Inten    --     9.7223                 2.6139                 9.3615
 Raman Activ --     0.5087                 4.7866                 1.0195

                    37                     38                     39
                     A                      A                      A
 Frequencies --   591.5437               596.1871               606.6094
 Red. masses --     2.9784                 6.2728                 4.1823
 Frc consts  --     0.6140                 1.3136                 0.9068
 IR Inten    --    56.5889                 2.1555                 4.4331
 Raman Activ --     0.6220                 1.4266                 0.4028

                    40                     41                     42
                     A                      A                      A
 Frequencies --   629.1223               683.3992               693.0882
 Red. masses --     4.0377                 1.9354                 1.6425
 Frc consts  --     0.9416                 0.5325                 0.4649
 IR Inten    --    38.0120                59.0488                52.3168
 Raman Activ --     1.9820                 0.5647                 1.7542

                    43                     44                     45
                     A                      A                      A
 Frequencies --   737.2296               737.3676               760.4768
 Red. masses --     1.0870                 1.0760                 1.0639
 Frc consts  --     0.3481                 0.3447                 0.3625
 IR Inten    --    16.3731               116.9742                98.4645
 Raman Activ --     1.3193                 1.1658                 1.6617

                    46                     47                     48
                     A                      A                      A
 Frequencies --   806.1765               827.4454               855.7248
 Red. masses --     1.0805                 1.0860                 1.7949
 Frc consts  --     0.4137                 0.4381                 0.7744
 IR Inten    --   101.4011                65.9858                 1.5787
 Raman Activ --     1.2113                 0.3440                 1.2575

                    49                     50                     51
                     A                      A                      A
 Frequencies --   868.9245               920.3104               949.8864
 Red. masses --     1.6305                 5.8768                 4.8475
 Frc consts  --     0.7253                 2.9327                 2.5770
 IR Inten    --    10.3489                78.2384                70.4363
 Raman Activ --     0.7820                 2.4106                 1.3993

                    52                     53                     54
                     A                      A                      A
 Frequencies --   961.8406               974.3363               985.0732
 Red. masses --     4.5244                 5.6619                 5.6734
 Frc consts  --     2.4661                 3.1669                 3.2436
 IR Inten    --    68.3513                 3.6569               124.4058
 Raman Activ --     1.1665                 1.8275                 1.7271

                    55                     56                     57
                     A                      A                      A
 Frequencies --   999.0268              1011.2079              1024.2380
 Red. masses --     6.2700                 5.7954                 5.6934
 Frc consts  --     3.6870                 3.4915                 3.5191
 IR Inten    --   339.7629                85.6918               150.1137
 Raman Activ --     0.7395                 2.0805                 3.0379

                    58                     59                     60
                     A                      A                      A
 Frequencies --  1041.2211              1054.8767              1055.6840
 Red. masses --     6.2256                 3.5220                 6.7608
 Frc consts  --     3.9766                 2.3091                 4.4393
 IR Inten    --   390.4615                34.6477               136.0739
 Raman Activ --     2.8220                 3.9454                 3.5423

                    61                     62                     63
                     A                      A                      A
 Frequencies --  1067.4583              1073.8524              1085.7017
 Red. masses --     4.0936                 4.8763                 3.5491
 Frc consts  --     2.7483                 3.3130                 2.4648
 IR Inten    --     9.4658                26.4606                18.0383
 Raman Activ --    22.0902                 7.2918                21.0074

                    64                     65                     66
                     A                      A                      A
 Frequencies --  1086.3958              1098.5255              1105.9762
 Red. masses --     3.1834                 2.8131                 2.8765
 Frc consts  --     2.2137                 2.0001                 2.0730
 IR Inten    --    91.3632                 5.4563                45.7951
 Raman Activ --     4.4751                 4.6958                 4.9946

                    67                     68                     69
                     A                      A                      A
 Frequencies --  1114.5538              1121.4827              1126.5148
 Red. masses --     2.4717                 2.6537                 2.8010
 Frc consts  --     1.8090                 1.9665                 2.0943
 IR Inten    --    58.7681                 5.7287               115.5943
 Raman Activ --     3.4614                 1.4012                 8.6126

                    70                     71                     72
                     A                      A                      A
 Frequencies --  1139.3218              1145.4533              1150.5815
 Red. masses --     2.1197                 1.7637                 2.6470
 Frc consts  --     1.6212                 1.3635                 2.0646
 IR Inten    --    11.9168                11.1853                30.1214
 Raman Activ --     0.6374                 6.2079                 3.4766

                    73                     74                     75
                     A                      A                      A
 Frequencies --  1159.9510              1172.6764              1179.8175
 Red. masses --     2.1527                 1.5666                 1.8292
 Frc consts  --     1.7066                 1.2693                 1.5002
 IR Inten    --     0.9991                24.8120                 8.2321
 Raman Activ --     4.0329                 1.0858                 2.2040

                    76                     77                     78
                     A                      A                      A
 Frequencies --  1192.1253              1199.9923              1229.3740
 Red. masses --     1.3870                 1.3463                 1.2468
 Frc consts  --     1.1614                 1.1422                 1.1102
 IR Inten    --    10.7962                 8.5837                 6.4006
 Raman Activ --     1.7187                 1.3995                 2.8042

                    79                     80                     81
                     A                      A                      A
 Frequencies --  1234.4663              1238.9638              1257.3902
 Red. masses --     1.2425                 1.2224                 1.3581
 Frc consts  --     1.1156                 1.1056                 1.2651
 IR Inten    --     1.2284                 8.3997                15.8463
 Raman Activ --     1.2258                 2.5497                 1.0860

                    82                     83                     84
                     A                      A                      A
 Frequencies --  1267.5282              1270.9104              1277.4204
 Red. masses --     1.3682                 1.2867                 1.1902
 Frc consts  --     1.2952                 1.2245                 1.1443
 IR Inten    --    17.7580                30.9539                 1.9387
 Raman Activ --     3.6628                 0.4949                 6.6015

                    85                     86                     87
                     A                      A                      A
 Frequencies --  1283.6816              1285.5847              1298.2096
 Red. masses --     1.2896                 1.3031                 1.2939
 Frc consts  --     1.2521                 1.2689                 1.2848
 IR Inten    --    21.2046                11.0214                30.8329
 Raman Activ --     2.1984                 2.6919                 7.7192

                    88                     89                     90
                     A                      A                      A
 Frequencies --  1303.1270              1317.9290              1328.6874
 Red. masses --     1.2508                 1.3268                 1.2731
 Frc consts  --     1.2515                 1.3579                 1.3242
 IR Inten    --    11.1404                11.4584                27.6640
 Raman Activ --     8.2974                 1.6897                 3.3751

                    91                     92                     93
                     A                      A                      A
 Frequencies --  1336.2497              1340.5835              1345.8919
 Red. masses --     1.1745                 1.1883                 1.2449
 Frc consts  --     1.2356                 1.2582                 1.3286
 IR Inten    --    56.0148                45.1076                10.6061
 Raman Activ --     6.0801                 2.5095                 0.5393

                    94                     95                     96
                     A                      A                      A
 Frequencies --  1362.1851              1368.7855              1371.4070
 Red. masses --     1.4367                 1.3683                 1.2974
 Frc consts  --     1.5706                 1.5105                 1.4377
 IR Inten    --     6.7565                 5.7133                 8.1622
 Raman Activ --    14.5750                 2.5057                 5.0910

                    97                     98                     99
                     A                      A                      A
 Frequencies --  1381.7064              1387.2266              1397.5020
 Red. masses --     1.4025                 1.7342                 1.3942
 Frc consts  --     1.5776                 1.9663                 1.6043
 IR Inten    --    18.5926                 5.3454                 0.7673
 Raman Activ --     3.5395                 4.6005                 2.5868

                   100                    101                    102
                     A                      A                      A
 Frequencies --  1426.5027              1453.9222              1456.0519
 Red. masses --     1.4329                 1.3682                 1.4243
 Frc consts  --     1.7179                 1.7040                 1.7792
 IR Inten    --    54.2194                29.4801                22.8780
 Raman Activ --     0.9298                 2.7682                 0.9031

                   103                    104                    105
                     A                      A                      A
 Frequencies --  1470.7363              1474.5802              1475.7911
 Red. masses --     1.1165                 1.4190                 1.0720
 Frc consts  --     1.4230                 1.8179                 1.3756
 IR Inten    --     3.7754                30.8711                 4.7596
 Raman Activ --     2.9384                 0.5452                 5.1440

                   106                    107                    108
                     A                      A                      A
 Frequencies --  1508.3085              1537.2088              3229.4898
 Red. masses --     1.2356                 1.1947                 1.0703
 Frc consts  --     1.6562                 1.6633                 6.5767
 IR Inten    --    49.4335                65.6979               878.2676
 Raman Activ --     1.9358                 3.1722               180.7362

                   109                    110                    111
                     A                      A                      A
 Frequencies --  3257.7653              3263.5788              3269.6113
 Red. masses --     1.0572                 1.0585                 1.0824
 Frc consts  --     6.6107                 6.6426                 6.8178
 IR Inten    --    24.5774                 7.8472                97.2609
 Raman Activ --    72.9797               178.4451                14.5262

                   112                    113                    114
                     A                      A                      A
 Frequencies --  3273.2993              3276.3392              3278.0321
 Red. masses --     1.0812                 1.0831                 1.0839
 Frc consts  --     6.8255                 6.8501                 6.8622
 IR Inten    --    83.2763                60.1911                37.5814
 Raman Activ --    33.5034                47.1588                36.3497

                   115                    116                    117
                     A                      A                      A
 Frequencies --  3281.3387              3283.1353              3288.0791
 Red. masses --     1.0816                 1.0848                 1.0795
 Frc consts  --     6.8618                 6.8892                 6.8765
 IR Inten    --   102.5380                 1.4560               288.1732
 Raman Activ --   175.4038                69.7246               100.4987

                   118                    119                    120
                     A                      A                      A
 Frequencies --  3290.3410              3292.8818              3303.3759
 Red. masses --     1.0857                 1.0812                 1.0863
 Frc consts  --     6.9252                 6.9075                 6.9842
 IR Inten    --     3.8400               277.9147                71.3176
 Raman Activ --     4.5000               146.5138                22.4600

                   121                    122                    123
                     A                      A                      A
 Frequencies --  3304.8867              3315.6258              3318.4272
 Red. masses --     1.0895                 1.1034                 1.1060
 Frc consts  --     7.0109                 7.1469                 7.1756
 IR Inten    --    57.7108                66.6833                47.4351
 Raman Activ --     5.9669                31.0257                49.3487

                   124                    125                    126
                     A                      A                      A
 Frequencies --  3362.7911              3362.9703              3366.6752
 Red. masses --     1.0664                 1.0656                 1.0686
 Frc consts  --     7.1049                 7.1005                 7.1359
 IR Inten    --    68.1813                39.4913                42.4190
 Raman Activ --   139.7762                96.6144               177.3357

                   127                    128                    129
                     A                      A                      A
 Frequencies --  3368.1383              3889.7289              3892.1208
 Red. masses --     1.0650                 1.0674                 1.0676
 Frc consts  --     7.1185                 9.5156                 9.5283
 IR Inten    --    30.5199                74.9200                80.7937
 Raman Activ --   123.7727               109.8985                90.7923

 - Thermochemistry -
 -------------------
 Temperature   298.150 Kelvin.  Pressure   1.00000 Atm.
 Atom     1 has atomic number  8 and mass  15.99491

 Molecular mass:   342.11621 amu.
 Principal axes and moments of inertia in atomic units:
                           1         2         3
     Eigenvalues --  4384.36055********************
           X            0.99997   0.00768  -0.00012
           Y           -0.00768   0.99997   0.00131
           Z            0.00013  -0.00131   1.00000
 This molecule is an asymmetric top.
 Rotational symmetry number  1.
 Warning -- assumption of classical behavior for rotation
           may cause significant error
 Rotational temperatures (Kelvin)      0.01976     0.00699     0.00528
 Rotational constants (GHZ):           0.41163     0.14562     0.11009
    6 imaginary frequencies ignored.
 Zero-point vibrational energy     975254.5 (Joules/Mol)
                                  233.09142 (Kcal/Mol)
 Warning -- explicit consideration of  33 degrees of freedom as
           vibrations may cause significant error
 Vibrational temperatures:     58.81    74.86    98.50   114.65   140.30
          (Kelvin)            183.46   212.80   252.48   286.53   299.55
                              342.47   390.38   423.56   427.02   438.23
                              451.13   456.74   474.00   495.46   523.03
                              553.33   584.15   614.21   624.98   647.64
                              706.50   707.81   762.50   776.85   829.79
                              851.10   857.78   872.77   905.17   983.26
                              997.20  1060.71  1060.91  1094.16  1159.91
                             1190.51  1231.20  1250.19  1324.12  1366.67
                             1383.87  1401.85  1417.30  1437.37  1454.90
                             1473.65  1498.08  1517.73  1518.89  1535.83
                             1545.03  1562.08  1563.08  1580.53  1591.25
                             1603.59  1613.56  1620.80  1639.23  1648.05
                             1655.43  1668.91  1687.22  1697.49  1715.20
                             1726.52  1768.79  1776.12  1782.59  1809.10
                             1823.69  1828.55  1837.92  1846.93  1849.67
                             1867.83  1874.91  1896.20  1911.68  1922.56
                             1928.80  1936.44  1959.88  1969.37  1973.15
                             1987.96  1995.91  2010.69  2052.42  2091.87
                             2094.93  2116.06  2121.59  2123.33  2170.12
                             2211.70  4646.51  4687.19  4695.56  4704.24
                             4709.54  4713.92  4716.35  4721.11  4723.69
                             4730.81  4734.06  4737.72  4752.82  4754.99
                             4770.44  4774.47  4838.30  4838.56  4843.89
                             4845.99  5596.45  5599.89

 Zero-point correction=                           0.371455 (Hartree/Particle)
 Thermal correction to Energy=                    0.390436
 Thermal correction to Enthalpy=                  0.391380
 Thermal correction to Gibbs Free Energy=         0.324721
 Sum of electronic and zero-point Energies=          -1297.615915
 Sum of electronic and thermal Energies=             -1297.596934
 Sum of electronic and thermal Enthalpies=           -1297.595989
 Sum of electronic and thermal Free Energies=        -1297.662649

                     E (Thermal)             CV                S
                      KCal/Mol        Cal/Mol-Kelvin    Cal/Mol-Kelvin
 Total                  245.002             77.596            140.296
 Electronic               0.000              0.000              0.000
 Translational            0.889              2.981             43.384
 Rotational               0.889              2.981             35.142
 Vibrational            243.225             71.634             61.770
 Vibration     1          0.594              1.981              5.216
 Vibration     2          0.596              1.977              4.739
 Vibration     3          0.598              1.969              4.197
 Vibration     4          0.600              1.963              3.899
 Vibration     5          0.603              1.951              3.503
 Vibration     6          0.611              1.926              2.983
 Vibration     7          0.617              1.905              2.699
 Vibration     8          0.627              1.873              2.376
 Vibration     9          0.637              1.841              2.141
 Vibration    10          0.642              1.828              2.059
 Vibration    11          0.656              1.782              1.818
 Vibration    12          0.675              1.726              1.588
 Vibration    13          0.689              1.684              1.449
 Vibration    14          0.690              1.680              1.435
 Vibration    15          0.695              1.665              1.392
 Vibration    16          0.701              1.648              1.344
 Vibration    17          0.704              1.640              1.323
 Vibration    18          0.712              1.617              1.263
 Vibration    19          0.723              1.587              1.192
 Vibration    20          0.737              1.547              1.107
 Vibration    21          0.754              1.503              1.021
 Vibration    22          0.771              1.457              0.941
 Vibration    23          0.789              1.412              0.869
 Vibration    24          0.795              1.395              0.844
 Vibration    25          0.809              1.361              0.795
 Vibration    26          0.847              1.270              0.681
 Vibration    27          0.848              1.268              0.679
 Vibration    28          0.885              1.184              0.587
 Vibration    29          0.895              1.162              0.565
 Vibration    30          0.933              1.082              0.491
 Vibration    31          0.949              1.050              0.464
 Vibration    32          0.954              1.040              0.456
 Vibration    33          0.965              1.018              0.438

 Normal termination of Gaussian 09 at Mon Mar 21 22:59:38 2016.
