 Gaussian 09, Revision B.01,
 Gaussian 09:  EM64L-G09RevB.01 12-Aug-2010

 -------------------------------------------------
 # freq=raman b3lyp/6-31+g(2d,p) geom=connectivity
 -------------------------------------------------

 -----------------
 483 7631/7631.com
 -----------------
 Symbolic Z-matrix:
 Charge =  0 Multiplicity = 1

                         Standard orientation:
 ---------------------------------------------------------------------
 Center     Atomic      Atomic             Coordinates (Angstroms)
 Number     Number       Type             X           Y           Z
 ---------------------------------------------------------------------
      1          8           0        5.143538   -0.309596   -0.235876
      2          6           0        3.822747   -0.034447    0.251595
      3          6           0        3.226031    1.220497   -0.364194
      4          8           0        4.130708    2.333059   -0.422979
      5          1           0        5.074386    2.008896   -0.482235
      6          6           0        1.866466    1.490470    0.260510
      7          8           0        1.258891    2.651489   -0.323889
      8          1           0        0.426752    2.944709    0.146638
      9          6           0        3.226753   -2.538966    0.214431
     10          8           0        4.475422   -3.048171   -0.276277
     11          1           0        4.480570   -4.035576   -0.121461
     12          6           0        2.843878   -1.118689   -0.170527
     13          8           0        1.511608   -0.896367    0.313712
     14          6           0        0.916927    0.351285   -0.070403
     15          8           0       -0.309386    0.425507    0.670777
     16          6           0       -1.586865    0.216411    0.051459
     17          6           0       -2.133499   -1.142976    0.456211
     18          8           0       -1.157954   -2.142429    0.128232
     19          1           0       -0.295346   -1.778427    0.478983
     20          6           0       -3.441930   -1.494140   -0.233503
     21          8           0       -4.069776   -2.695688    0.237131
     22          1           0       -4.737637   -2.921414   -0.473220
     23          6           0       -2.241724    2.538892   -0.173080
     24          8           0       -1.277694    3.280727    0.588116
     25          1           0       -1.573863    4.231179    0.490142
     26          6           0       -2.670601    1.212040    0.431715
     27          8           0       -3.886136    0.955069   -0.285052
     28          6           0       -4.428305   -0.352636   -0.048425
     29          8           0       -5.531828   -0.679613   -0.905174
     30          1           0       -6.273445   -0.976272   -0.372636
     31          1           0       -4.777570   -0.381688    0.962550
     32          1           0       -3.248834   -1.605274   -1.280052
     33          1           0       -2.290459   -1.149069    1.514618
     34          1           0       -1.460421    0.234864   -1.010884
     35          1           0       -2.821849    1.276363    1.489016
     36          1           0       -3.112798    3.148328   -0.294395
     37          1           0       -1.827802    2.347106   -1.140958
     38          1           0        2.451115   -3.190371   -0.130471
     39          1           0        3.250646   -2.591760    1.282861
     40          1           0        2.795810   -1.089477   -1.239048
     41          1           0        5.718548   -0.525087    0.502045
     42          1           0        3.835742    0.051704    1.318042
     43          1           0        3.024432    0.969664   -1.384655
     44          1           0        1.956176    1.607535    1.320297
     45          1           0        0.707425    0.345737   -1.119678
 ---------------------------------------------------------------------

 SCF Done:  E(RB3LYP) =  -1297.99118709     A.U. after   13 cycles

 The electronic state is 1-A.
 Alpha  occ. eigenvalues --  -19.18853 -19.18601 -19.18423 -19.18070 -19.17855
 Alpha  occ. eigenvalues --  -19.17028 -19.16474 -19.16073 -19.14624 -19.13913
 Alpha  occ. eigenvalues --  -19.13342 -10.30594 -10.30304 -10.26286 -10.25828
 Alpha  occ. eigenvalues --  -10.25256 -10.25192 -10.24895 -10.24591 -10.24523
 Alpha  occ. eigenvalues --  -10.24114 -10.23974 -10.23868  -1.09697  -1.08968
 Alpha  occ. eigenvalues --   -1.05679  -1.05189  -1.04357  -1.03953  -1.02753
 Alpha  occ. eigenvalues --   -1.02469  -1.01537  -1.00676  -0.99818  -0.82562
 Alpha  occ. eigenvalues --   -0.80883  -0.79348  -0.78346  -0.71580  -0.69721
 Alpha  occ. eigenvalues --   -0.67248  -0.64512  -0.63169  -0.62114  -0.61327
 Alpha  occ. eigenvalues --   -0.60548  -0.56388  -0.55851  -0.55121  -0.54911
 Alpha  occ. eigenvalues --   -0.54025  -0.53494  -0.52901  -0.51790  -0.51111
 Alpha  occ. eigenvalues --   -0.50677  -0.49808  -0.49158  -0.48699  -0.46265
 Alpha  occ. eigenvalues --   -0.45857  -0.45537  -0.44080  -0.43542  -0.43352
 Alpha  occ. eigenvalues --   -0.42790  -0.42301  -0.41457  -0.40608  -0.39760
 Alpha  occ. eigenvalues --   -0.38340  -0.38198  -0.37634  -0.36278  -0.35888
 Alpha  occ. eigenvalues --   -0.35188  -0.34807  -0.34001  -0.33684  -0.33602
 Alpha  occ. eigenvalues --   -0.32843  -0.31497  -0.31084  -0.30563  -0.30110
 Alpha  occ. eigenvalues --   -0.29055  -0.28533  -0.28240  -0.27170  -0.26610
 Alpha  occ. eigenvalues --   -0.26368
 Alpha virt. eigenvalues --   -0.01999  -0.01846  -0.01590  -0.00060   0.00234
 Alpha virt. eigenvalues --    0.01033   0.01962   0.02142   0.02875   0.03339
 Alpha virt. eigenvalues --    0.03927   0.04115   0.04864   0.05500   0.05516

 Mulliken atomic charges:
              1
     1  O   -0.532397
     2  C   -0.107517
     3  C    0.134421
     4  O   -0.585786
     5  H    0.350782
     6  C    0.086901
     7  O   -0.570287
     8  H    0.410097
     9  C   -0.194996
    10  O   -0.521699
    11  H    0.338931
    12  C    0.214498
    13  O   -0.271441
    14  C    0.071684
    15  O   -0.278455
    16  C    0.149546
    17  C    0.214821
    18  O   -0.558308
    19  H    0.375066
    20  C    0.017800
    21  O   -0.531336
    22  H    0.338772
    23  C   -0.194417
    24  O   -0.554516
    25  H    0.351057
    26  C    0.005754
    27  O   -0.271086
    28  C    0.207850
    29  O   -0.573513
    30  H    0.344470
    31  H    0.124358
    32  H    0.131620
    33  H    0.118891
    34  H    0.117440
    35  H    0.135835
    36  H    0.139391
    37  H    0.156925
    38  H    0.148502
    39  H    0.137257
    40  H    0.110141
    41  H    0.340949
    42  H    0.115975
    43  H    0.103349
    44  H    0.123523
    45  H    0.129150
 Sum of Mulliken atomic charges =   0.00000

 Dipole moment (field-independent basis, Debye):
    X=             -2.1891    Y=             -0.3657    Z=              2.3381  Tot=              3.2238
 Quadrupole moment (field-independent basis, Debye-Ang):
   XX=           -118.8481   YY=           -135.7790   ZZ=           -138.9322
   XY=            -16.3341   XZ=              6.8949   YZ=              3.7644

  Exact polarizability: 235.074   1.386 194.983   1.523  -0.295 144.075
 Approx polarizability: 275.434   0.984 254.343   1.788  -0.083 239.610

 ******    6 imaginary frequencies (negative Signs) ******

                     1                      2                      3
                     A                      A                      A
 Frequencies --  -285.2079              -242.2719              -234.3744
 Red. masses --     1.5225                 1.2695                 1.2351
 Frc consts  --     0.0730                 0.0439                 0.0400
 IR Inten    --    40.9996                57.0065               143.2033
 Raman Activ --     0.2448                 0.5677                 1.1638

                     4                      5                      6
                     A                      A                      A
 Frequencies --  -189.7634               -59.7576               -39.6277
 Red. masses --     1.9732                 5.9886                 6.1362
 Frc consts  --     0.0419                 0.0126                 0.0057
 IR Inten    --     3.2519                 1.5721                 0.3838
 Raman Activ --     0.0346                 0.0646                 0.0587

                     7                      8                      9
                     A                      A                      A
 Frequencies --    15.7887                41.7315                75.7451
 Red. masses --     6.5132                 7.1457                 5.9898
 Frc consts  --     0.0010                 0.0073                 0.0202
 IR Inten    --     0.2627                 0.1995                 4.4217
 Raman Activ --     0.0385                 0.0649                 0.1753

                    10                     11                     12
                     A                      A                      A
 Frequencies --    88.5356               113.1928               129.2508
 Red. masses --     6.3993                 6.9457                 5.4685
 Frc consts  --     0.0296                 0.0524                 0.0538
 IR Inten    --     0.3720                 2.3791                 2.2870
 Raman Activ --     0.2567                 0.0622                 0.0993

                    13                     14                     15
                     A                      A                      A
 Frequencies --   158.6510               173.5973               189.6590
 Red. masses --     6.5811                 6.5577                 6.4712
 Frc consts  --     0.0976                 0.1164                 0.1371
 IR Inten    --     4.7567                 7.9629                 0.0519
 Raman Activ --     0.5995                 0.9132                 0.1967

                    16                     17                     18
                     A                      A                      A
 Frequencies --   198.3725               233.8397               271.3425
 Red. masses --     6.3109                 5.6468                 4.0550
 Frc consts  --     0.1463                 0.1819                 0.1759
 IR Inten    --     1.8430                 0.9119                18.4239
 Raman Activ --     1.6006                 1.0014                 0.2370

                    19                     20                     21
                     A                      A                      A
 Frequencies --   280.6603               291.3216               306.3898
 Red. masses --     4.7924                 6.0535                 5.3506
 Frc consts  --     0.2224                 0.3027                 0.2959
 IR Inten    --     0.9952                 2.5672                 1.5970
 Raman Activ --     0.0682                 0.0404                 0.7278

                    22                     23                     24
                     A                      A                      A
 Frequencies --   308.9274               318.9975               321.4383
 Red. masses --     5.9235                 5.8973                 5.2947
 Frc consts  --     0.3331                 0.3536                 0.3223
 IR Inten    --     3.4598                 2.4010                 2.4355
 Raman Activ --     1.3052                 2.2794                 1.9458

                    25                     26                     27
                     A                      A                      A
 Frequencies --   336.5792               357.6593               370.8738
 Red. masses --     6.5942                 4.9761                 7.9730
 Frc consts  --     0.4401                 0.3750                 0.6461
 IR Inten    --    17.6837                 7.1354                 2.3780
 Raman Activ --     3.3016                 0.4019                 2.6708

                    28                     29                     30
                     A                      A                      A
 Frequencies --   393.9477               418.2128               432.4814
 Red. masses --     4.4539                 6.2873                 5.2489
 Frc consts  --     0.4073                 0.6479                 0.5784
 IR Inten    --    13.5181                 4.8938                 1.9510
 Raman Activ --     1.7842                 1.7815                 1.1885

                    31                     32                     33
                     A                      A                      A
 Frequencies --   446.4179               479.5745               490.3041
 Red. masses --     5.7416                 4.3016                 4.5074
 Frc consts  --     0.6742                 0.5829                 0.6384
 IR Inten    --     1.4713                 2.4013                 8.3980
 Raman Activ --     6.0272                 2.7145                 3.0010

                    34                     35                     36
                     A                      A                      A
 Frequencies --   520.6895               529.3408               572.9712
 Red. masses --     3.6004                 3.1310                 4.1056
 Frc consts  --     0.5751                 0.5169                 0.7941
 IR Inten    --     9.4640                 6.7253                 4.8734
 Raman Activ --     3.8946                 1.9635                 0.8648

                    37                     38                     39
                     A                      A                      A
 Frequencies --   581.0560               597.9739               603.0877
 Red. masses --     3.3360                 6.0893                 3.5223
 Frc consts  --     0.6636                 1.2829                 0.7548
 IR Inten    --    33.5269                35.5918                23.4420
 Raman Activ --     0.6666                 1.2929                 1.6198

                    40                     41                     42
                     A                      A                      A
 Frequencies --   627.6009               671.6941               709.7417
 Red. masses --     3.9606                 5.3193                 1.0689
 Frc consts  --     0.9191                 1.4140                 0.3173
 IR Inten    --    10.7801                12.0504                42.1200
 Raman Activ --     0.9145                 0.3844                 1.6385

                    43                     44                     45
                     A                      A                      A
 Frequencies --   713.2797               735.6109               761.8075
 Red. masses --     1.0580                 1.1022                 1.0998
 Frc consts  --     0.3171                 0.3514                 0.3760
 IR Inten    --   146.4515                97.5623                78.8149
 Raman Activ --     1.8236                 1.3646                 1.1470

                    46                     47                     48
                     A                      A                      A
 Frequencies --   837.8734               841.4381               858.3834
 Red. masses --     1.1447                 1.0762                 1.7699
 Frc consts  --     0.4735                 0.4489                 0.7683
 IR Inten    --   107.9891                82.2318                 4.5965
 Raman Activ --     0.5582                 3.1822                 1.0536

                    49                     50                     51
                     A                      A                      A
 Frequencies --   882.6647               911.9008               964.0228
 Red. masses --     1.5868                 5.5703                 3.7049
 Frc consts  --     0.7284                 2.7291                 2.0286
 IR Inten    --    12.1227               145.8462                76.6625
 Raman Activ --     0.7040                 2.5105                 1.0132

                    52                     53                     54
                     A                      A                      A
 Frequencies --   972.5818               980.7103               991.3154
 Red. masses --     4.4376                 6.8345                 6.3409
 Frc consts  --     2.4732                 3.8729                 3.6713
 IR Inten    --    39.9454                76.5707               175.8076
 Raman Activ --     0.8696                 0.8254                 0.6490

                    55                     56                     57
                     A                      A                      A
 Frequencies --   994.8617              1004.1231              1027.9727
 Red. masses --     6.7615                 5.3882                 6.2390
 Frc consts  --     3.9429                 3.2009                 3.8844
 IR Inten    --    33.0470               402.4067               313.8017
 Raman Activ --     1.0697                 4.1450                 0.7799

                    58                     59                     60
                     A                      A                      A
 Frequencies --  1032.1247              1052.2264              1062.0645
 Red. masses --     6.3574                 4.9264                 5.4476
 Frc consts  --     3.9902                 3.2137                 3.6204
 IR Inten    --   217.8714               189.0561                19.2036
 Raman Activ --     4.3502                 3.9449                 3.7122

                    61                     62                     63
                     A                      A                      A
 Frequencies --  1065.1538              1070.9711              1077.2012
 Red. masses --     4.0460                 6.3615                 4.2172
 Frc consts  --     2.7046                 4.2990                 2.8831
 IR Inten    --    37.9468                23.1281                 4.2607
 Raman Activ --    11.8659                 1.3405                25.0435

                    64                     65                     66
                     A                      A                      A
 Frequencies --  1098.5586              1107.3187              1109.0066
 Red. masses --     2.6477                 2.2773                 1.9418
 Frc consts  --     1.8826                 1.6452                 1.4071
 IR Inten    --    86.3402                41.4914                18.8617
 Raman Activ --     3.0633                 3.9108                 1.2037

                    67                     68                     69
                     A                      A                      A
 Frequencies --  1114.4719              1127.2332              1131.6522
 Red. masses --     2.6537                 2.8534                 2.2761
 Frc consts  --     1.9420                 2.1362                 1.7174
 IR Inten    --    10.7546                30.7187                43.1938
 Raman Activ --     5.1809                 2.6069                 5.9518

                    70                     71                     72
                     A                      A                      A
 Frequencies --  1134.9026              1142.1463              1147.6650
 Red. masses --     2.4336                 2.6331                 2.2951
 Frc consts  --     1.8468                 2.0238                 1.7811
 IR Inten    --    52.3405                 5.9237                16.5112
 Raman Activ --     4.7339                 8.3712                 3.8739

                    73                     74                     75
                     A                      A                      A
 Frequencies --  1152.9948              1167.9288              1185.1345
 Red. masses --     1.6414                 2.1507                 1.8238
 Frc consts  --     1.2857                 1.7285                 1.5092
 IR Inten    --    10.2940                 0.9079                10.0598
 Raman Activ --     2.3672                 3.8053                 1.6620

                    76                     77                     78
                     A                      A                      A
 Frequencies --  1200.4577              1211.7537              1222.7154
 Red. masses --     1.3750                 1.2414                 1.3846
 Frc consts  --     1.1674                 1.0740                 1.2196
 IR Inten    --     9.0782                15.7741                 4.2954
 Raman Activ --     2.6745                 0.6144                 1.0209

                    79                     80                     81
                     A                      A                      A
 Frequencies --  1245.3390              1247.2780              1260.2906
 Red. masses --     1.3680                 1.2576                 1.2672
 Frc consts  --     1.2500                 1.1527                 1.1859
 IR Inten    --     2.3964                 2.5946                13.2554
 Raman Activ --     0.5605                 2.3825                 1.4116

                    82                     83                     84
                     A                      A                      A
 Frequencies --  1269.7232              1276.5390              1280.9304
 Red. masses --     1.1971                 1.2642                 1.2931
 Frc consts  --     1.1371                 1.2138                 1.2500
 IR Inten    --     9.0223                 6.1347                 7.9830
 Raman Activ --     4.3328                 1.8019                 2.5906

                    85                     86                     87
                     A                      A                      A
 Frequencies --  1289.4805              1298.1696              1302.3177
 Red. masses --     1.3386                 1.1835                 1.2327
 Frc consts  --     1.3114                 1.1751                 1.2318
 IR Inten    --    28.3690                29.5624                31.2206
 Raman Activ --     0.5942                 1.4995                 4.9765

                    88                     89                     90
                     A                      A                      A
 Frequencies --  1309.8404              1317.9984              1327.0010
 Red. masses --     1.4181                 1.2511                 1.3436
 Frc consts  --     1.4335                 1.2805                 1.3940
 IR Inten    --    24.5127                14.9273                22.9103
 Raman Activ --    10.0754                 8.9238                 2.4296

                    91                     92                     93
                     A                      A                      A
 Frequencies --  1338.7599              1345.8657              1349.6260
 Red. masses --     1.2006                 1.2676                 1.6484
 Frc consts  --     1.2678                 1.3528                 1.7691
 IR Inten    --    41.4020                14.9178                10.8248
 Raman Activ --     2.3599                 2.0929                10.2973

                    94                     95                     96
                     A                      A                      A
 Frequencies --  1371.8242              1383.9769              1384.7946
 Red. masses --     1.2078                 1.4526                 1.3640
 Frc consts  --     1.3392                 1.6392                 1.5411
 IR Inten    --    31.8910                19.1349                 3.7706
 Raman Activ --     1.0163                 8.9034                 0.8906

                    97                     98                     99
                     A                      A                      A
 Frequencies --  1386.5382              1389.7708              1402.4934
 Red. masses --     1.3884                 1.3367                 1.1671
 Frc consts  --     1.5726                 1.5211                 1.3526
 IR Inten    --    32.9973                 2.0621                 8.0010
 Raman Activ --     8.5257                 3.8873                 0.8841

                   100                    101                    102
                     A                      A                      A
 Frequencies --  1418.4183              1448.7043              1458.9218
 Red. masses --     1.4162                 1.3946                 1.2774
 Frc consts  --     1.6787                 1.7245                 1.6019
 IR Inten    --    26.2489                41.1361                37.6385
 Raman Activ --     1.7187                 1.3584                 1.6828

                   103                    104                    105
                     A                      A                      A
 Frequencies --  1468.7166              1475.8850              1480.5843
 Red. masses --     1.2925                 1.1580                 1.1315
 Frc consts  --     1.6427                 1.4861                 1.4613
 IR Inten    --    14.3041                 5.2881                13.6734
 Raman Activ --     3.2493                 2.1692                 5.6282

                   106                    107                    108
                     A                      A                      A
 Frequencies --  1490.1495              1496.1736              3252.2556
 Red. masses --     1.3630                 1.1987                 1.0748
 Frc consts  --     1.7833                 1.5809                 6.6979
 IR Inten    --    52.5388                17.3986                10.5145
 Raman Activ --     2.6251                 0.6914                 6.1039

                   109                    110                    111
                     A                      A                      A
 Frequencies --  3255.8051              3259.0618              3270.8712
 Red. masses --     1.0645                 1.0596                 1.0808
 Frc consts  --     6.6484                 6.6307                 6.8127
 IR Inten    --    31.8579               147.5750                12.9229
 Raman Activ --   116.4131                24.9275               105.2956

                   112                    113                    114
                     A                      A                      A
 Frequencies --  3271.6347              3274.2301              3277.2474
 Red. masses --     1.0835                 1.0825                 1.0708
 Frc consts  --     6.8332                 6.8377                 6.7761
 IR Inten    --     6.8369                35.9144               512.5781
 Raman Activ --     6.4183               162.8538               268.2165

                   115                    116                    117
                     A                      A                      A
 Frequencies --  3284.2846              3285.6932              3289.4692
 Red. masses --     1.0835                 1.0844                 1.0861
 Frc consts  --     6.8858                 6.8977                 6.9240
 IR Inten    --    20.4900                24.5759                 5.3795
 Raman Activ --    22.3816                43.4363                77.9437

                   118                    119                    120
                     A                      A                      A
 Frequencies --  3293.9547              3300.5851              3301.6079
 Red. masses --     1.0859                 1.0877                 1.0877
 Frc consts  --     6.9419                 6.9813                 6.9854
 IR Inten    --     8.8649                29.9730                97.2922
 Raman Activ --    59.0852                 8.1359                24.4434

                   121                    122                    123
                     A                      A                      A
 Frequencies --  3310.6823              3321.2982              3340.9785
 Red. masses --     1.1052                 1.1048                 1.0662
 Frc consts  --     7.1369                 7.1805                 7.0117
 IR Inten    --    55.5215                65.6677               351.7849
 Raman Activ --    34.1181                16.7675               135.1027

                   124                    125                    126
                     A                      A                      A
 Frequencies --  3361.4255              3370.8718              3371.7227
 Red. masses --     1.0655                 1.0687                 1.0660
 Frc consts  --     7.0934                 7.1548                 7.1402
 IR Inten    --    40.8669                43.9779                44.4680
 Raman Activ --   114.1336               139.5232                86.6480

                   127                    128                    129
                     A                      A                      A
 Frequencies --  3373.4274              3891.1126              3891.7637
 Red. masses --     1.0670                 1.0675                 1.0676
 Frc consts  --     7.1545                 9.5224                 9.5267
 IR Inten    --    47.1374               100.9695                72.6644
 Raman Activ --   186.2338                87.0289                99.4503

 - Thermochemistry -
 -------------------
 Temperature   298.150 Kelvin.  Pressure   1.00000 Atm.
 Atom     1 has atomic number  8 and mass  15.99491

 Molecular mass:   342.11621 amu.
 Principal axes and moments of inertia in atomic units:
                           1         2         3
     Eigenvalues --  4277.34608********************
           X            0.99998  -0.00689   0.00086
           Y            0.00689   0.99998  -0.00042
           Z           -0.00086   0.00042   1.00000
 This molecule is an asymmetric top.
 Rotational symmetry number  1.
 Warning -- assumption of classical behavior for rotation
           may cause significant error
 Rotational temperatures (Kelvin)      0.02025     0.00668     0.00517
 Rotational constants (GHZ):           0.42193     0.13912     0.10763
    6 imaginary frequencies ignored.
 Zero-point vibrational energy     975650.2 (Joules/Mol)
                                  233.18598 (Kcal/Mol)
 Warning -- explicit consideration of  33 degrees of freedom as
           vibrations may cause significant error
 Vibrational temperatures:     22.72    60.04   108.98   127.38   162.86
          (Kelvin)            185.96   228.26   249.77   272.88   285.41
                              336.44   390.40   403.81   419.15   440.83
                              444.48   458.97   462.48   484.26   514.59
                              533.60   566.80   601.71   622.24   642.30
                              690.00   705.44   749.16   761.60   824.38
                              836.01   860.35   867.71   902.98   966.42
                             1021.16  1026.25  1058.38  1096.07  1205.51
                             1210.64  1235.02  1269.96  1312.02  1387.01
                             1399.33  1411.02  1426.28  1431.38  1444.71
                             1479.02  1485.00  1513.92  1528.07  1532.52
                             1540.89  1549.85  1580.58  1593.18  1595.61
                             1603.47  1621.84  1628.19  1632.87  1643.29
                             1651.23  1658.90  1680.39  1705.14  1727.19
                             1743.44  1759.21  1791.76  1794.55  1813.27
                             1826.85  1836.65  1842.97  1855.27  1867.77
                             1873.74  1884.57  1896.30  1909.26  1926.17
                             1936.40  1941.81  1973.75  1991.23  1992.41
                             1994.92  1999.57  2017.87  2040.79  2084.36
                             2099.06  2113.15  2123.47  2130.23  2143.99
                             2152.66  4679.26  4684.37  4689.06  4706.05
                             4707.15  4710.88  4715.22  4725.35  4727.37
                             4732.81  4739.26  4748.80  4750.27  4763.33
                             4778.60  4806.92  4836.34  4849.93  4851.15
                             4853.60  5598.44  5599.37

 Zero-point correction=                           0.371606 (Hartree/Particle)
 Thermal correction to Energy=                    0.390726
 Thermal correction to Enthalpy=                  0.391670
 Thermal correction to Gibbs Free Energy=         0.323976
 Sum of electronic and zero-point Energies=          -1297.619582
 Sum of electronic and thermal Energies=             -1297.600461
 Sum of electronic and thermal Enthalpies=           -1297.599517
 Sum of electronic and thermal Free Energies=        -1297.667211

                     E (Thermal)             CV                S
                      KCal/Mol        Cal/Mol-Kelvin    Cal/Mol-Kelvin
 Total                  245.184             77.753            142.474
 Electronic               0.000              0.000              0.000
 Translational            0.889              2.981             43.384
 Rotational               0.889              2.981             35.186
 Vibrational            243.407             71.791             63.905
 Vibration     1          0.593              1.986              7.104
 Vibration     2          0.594              1.981              5.175
 Vibration     3          0.599              1.965              3.998
 Vibration     4          0.601              1.957              3.692
 Vibration     5          0.607              1.939              3.213
 Vibration     6          0.612              1.924              2.957
 Vibration     7          0.621              1.893              2.566
 Vibration     8          0.627              1.875              2.396
 Vibration     9          0.633              1.854              2.231
 Vibration    10          0.637              1.842              2.148
 Vibration    11          0.654              1.789              1.849
 Vibration    12          0.675              1.726              1.588
 Vibration    13          0.680              1.709              1.530
 Vibration    14          0.687              1.690              1.466
 Vibration    15          0.697              1.662              1.382
 Vibration    16          0.698              1.657              1.368
 Vibration    17          0.705              1.637              1.315
 Vibration    18          0.707              1.632              1.303
 Vibration    19          0.717              1.602              1.228
 Vibration    20          0.733              1.560              1.132
 Vibration    21          0.743              1.532              1.076
 Vibration    22          0.761              1.483              0.985
 Vibration    23          0.781              1.431              0.898
 Vibration    24          0.793              1.399              0.851
 Vibration    25          0.806              1.369              0.807
 Vibration    26          0.836              1.295              0.711
 Vibration    27          0.846              1.272              0.683
 Vibration    28          0.876              1.204              0.608
 Vibration    29          0.884              1.185              0.589
 Vibration    30          0.929              1.090              0.499
 Vibration    31          0.938              1.072              0.483
 Vibration    32          0.956              1.036              0.453
 Vibration    33          0.961              1.025              0.444

 Normal termination of Gaussian 09 at Tue Mar 29 23:01:47 2016.
