 Gaussian 09, Revision B.01,
 Gaussian 09:  EM64L-G09RevB.01 12-Aug-2010

 -------------------------------------------------
 # freq=raman b3lyp/6-31+g(2d,p) geom=connectivity
 -------------------------------------------------

 -----------------
 400 5361/5361.com
 -----------------
 Symbolic Z-matrix:
 Charge =  0 Multiplicity = 1

                         Standard orientation:
 ---------------------------------------------------------------------
 Center     Atomic      Atomic             Coordinates (Angstroms)
 Number     Number       Type             X           Y           Z
 ---------------------------------------------------------------------
      1          8           0        4.997922   -0.276769   -0.350157
      2          6           0        3.715665   -0.089377    0.265775
      3          6           0        3.247177    1.308659   -0.102616
      4          8           0        4.026028    2.284669    0.603448
      5          1           0        5.007697    2.094453    0.588235
      6          6           0        1.774843    1.520180    0.213685
      7          8           0        1.236231    2.760946   -0.265124
      8          1           0        0.243116    2.650047   -0.225752
      9          6           0        3.164788   -2.500924    0.182948
     10          8           0        4.307295   -3.054783   -0.484728
     11          1           0        4.271328   -4.048407   -0.598336
     12          6           0        2.810872   -1.131486   -0.372655
     13          8           0        1.457081   -0.894971    0.039675
     14          6           0        0.900169    0.385349   -0.293869
     15          8           0       -0.247701    0.582313    0.544256
     16          6           0       -1.495202    0.266875   -0.090138
     17          6           0       -1.926961   -1.096888    0.424255
     18          8           0       -0.983194   -2.122109    0.079769
     19          1           0       -0.081721   -1.861034    0.423933
     20          6           0       -3.308570   -1.512107   -0.054660
     21          8           0       -3.809245   -2.795797    0.344603
     22          1           0       -4.601045   -2.974888   -0.239892
     23          6           0       -2.473700    2.484261   -0.446131
     24          8           0       -1.309917    3.211282   -0.023548
     25          1           0       -1.398224    4.190576   -0.206429
     26          6           0       -2.677303    1.155013    0.262723
     27          8           0       -3.957229    0.761872   -0.253782
     28          6           0       -4.331919   -0.473551    0.373420
     29          8           0       -5.434694   -0.657599   -0.527291
     30          1           0       -6.258259   -0.629408   -0.034802
     31          1           0        5.684218   -0.232359    0.319638
     32          1           0        3.379413   -2.410283    1.227276
     33          1           0        2.330430   -3.157992    0.052536
     34          1           0        2.896410   -1.115411   -1.439109
     35          1           0        3.770938   -0.216983    1.326700
     36          1           0        3.393512    1.450805   -1.152987
     37          1           0        1.685288    1.531819    1.279867
     38          1           0        0.666645    0.479598   -1.333814
     39          1           0       -3.335207    3.095014   -0.273834
     40          1           0       -2.393581    2.298582   -1.496847
     41          1           0       -2.731365    1.303332    1.321013
     42          1           0       -1.367646    0.232431   -1.151950
     43          1           0       -1.962183   -1.038706    1.492091
     44          1           0       -3.281046   -1.507204   -1.124295
     45          1           0       -4.578498   -0.422440    1.413366
 ---------------------------------------------------------------------

 SCF Done:  E(RB3LYP) =  -1297.97462638     A.U. after   13 cycles

 The electronic state is 1-A.
 Alpha  occ. eigenvalues --  -19.18506 -19.18149 -19.17957 -19.17908 -19.17210
 Alpha  occ. eigenvalues --  -19.16271 -19.15767 -19.15578 -19.14861 -19.13415
 Alpha  occ. eigenvalues --  -19.12326 -10.30301 -10.30259 -10.25463 -10.25364
 Alpha  occ. eigenvalues --  -10.25108 -10.24613 -10.24547 -10.24421 -10.23930
 Alpha  occ. eigenvalues --  -10.23904 -10.23390 -10.22945  -1.10243  -1.09682
 Alpha  occ. eigenvalues --   -1.05332  -1.04829  -1.03899  -1.02944  -1.02024
 Alpha  occ. eigenvalues --   -1.01850  -1.01323  -1.00205  -0.99241  -0.82305
 Alpha  occ. eigenvalues --   -0.79833  -0.79037  -0.77842  -0.71483  -0.69206
 Alpha  occ. eigenvalues --   -0.66915  -0.65053  -0.63157  -0.62665  -0.61330
 Alpha  occ. eigenvalues --   -0.59933  -0.56784  -0.55995  -0.54749  -0.54573
 Alpha  occ. eigenvalues --   -0.53375  -0.53007  -0.52600  -0.51700  -0.50302
 Alpha  occ. eigenvalues --   -0.50121  -0.49736  -0.49421  -0.48200  -0.46254
 Alpha  occ. eigenvalues --   -0.45459  -0.44750  -0.44259  -0.43284  -0.42666
 Alpha  occ. eigenvalues --   -0.41981  -0.41088  -0.40435  -0.39865  -0.39028
 Alpha  occ. eigenvalues --   -0.38679  -0.38585  -0.37010  -0.36751  -0.36029
 Alpha  occ. eigenvalues --   -0.34864  -0.34672  -0.34058  -0.33563  -0.33093
 Alpha  occ. eigenvalues --   -0.32046  -0.31057  -0.30730  -0.30148  -0.29422
 Alpha  occ. eigenvalues --   -0.29307  -0.28487  -0.27862  -0.26905  -0.26204
 Alpha  occ. eigenvalues --   -0.25683
 Alpha virt. eigenvalues --   -0.01685  -0.01465  -0.01332  -0.00210   0.00137
 Alpha virt. eigenvalues --    0.00970   0.01783   0.02222   0.02723   0.03681
 Alpha virt. eigenvalues --    0.03726   0.04596   0.04902   0.05478   0.05658

 Mulliken atomic charges:
              1
     1  O   -0.529230
     2  C   -0.120538
     3  C    0.270190
     4  O   -0.569465
     5  H    0.324155
     6  C    0.066638
     7  O   -0.601249
     8  H    0.436019
     9  C   -0.185512
    10  O   -0.528725
    11  H    0.341029
    12  C    0.141359
    13  O   -0.269000
    14  C    0.160797
    15  O   -0.223239
    16  C    0.251467
    17  C    0.120114
    18  O   -0.554332
    19  H    0.369241
    20  C   -0.024287
    21  O   -0.542525
    22  H    0.342876
    23  C   -0.240840
    24  O   -0.568000
    25  H    0.364303
    26  C   -0.183147
    27  O   -0.185432
    28  C    0.190676
    29  O   -0.543253
    30  H    0.323745
    31  H    0.327892
    32  H    0.134736
    33  H    0.141104
    34  H    0.127149
    35  H    0.123650
    36  H    0.124930
    37  H    0.128308
    38  H    0.135848
    39  H    0.139971
    40  H    0.152839
    41  H    0.126145
    42  H    0.109712
    43  H    0.114905
    44  H    0.133129
    45  H    0.145850
 Sum of Mulliken atomic charges =   0.00000

 Dipole moment (field-independent basis, Debye):
    X=             -2.3593    Y=             -0.0359    Z=              1.2021  Tot=              2.6481
 Quadrupole moment (field-independent basis, Debye-Ang):
   XX=           -113.9291   YY=           -139.6794   ZZ=           -136.5507
   XY=            -16.7416   XZ=              2.1190   YZ=             -1.0836

  Exact polarizability: 235.124   1.185 194.817   1.061  -0.427 144.286
 Approx polarizability: 275.949   0.628 254.458   2.114   0.497 241.296

 ******    7 imaginary frequencies (negative Signs) ******

                     1                      2                      3
                     A                      A                      A
 Frequencies --  -263.6405              -261.5765              -203.2010
 Red. masses --     1.2174                 1.1319                 1.9770
 Frc consts  --     0.0499                 0.0456                 0.0481
 IR Inten    --    68.9995               125.0217                 2.5211
 Raman Activ --     1.3435                 0.8417                 0.1129

                     4                      5                      6
                     A                      A                      A
 Frequencies --  -188.8417               -73.3976               -65.8988
 Red. masses --     1.9534                 5.8821                 5.9079
 Frc consts  --     0.0410                 0.0187                 0.0151
 IR Inten    --    10.3868                 0.3694                 0.6732
 Raman Activ --     0.1988                 0.0408                 0.0937

                     7                      8                      9
                     A                      A                      A
 Frequencies --   -62.5190                29.2437                61.8525
 Red. masses --     6.5369                 6.1372                 6.7921
 Frc consts  --     0.0151                 0.0031                 0.0153
 IR Inten    --     1.7741                 0.6292                 0.3988
 Raman Activ --     0.0334                 0.0122                 0.0589

                    10                     11                     12
                     A                      A                      A
 Frequencies --    77.1562                83.5203               107.0433
 Red. masses --     6.7598                 6.4723                 5.9975
 Frc consts  --     0.0237                 0.0266                 0.0405
 IR Inten    --     1.2226                 0.1351                 1.0385
 Raman Activ --     0.2142                 0.1117                 0.0819

                    13                     14                     15
                     A                      A                      A
 Frequencies --   158.9460               198.0365               202.9913
 Red. masses --     6.3864                 5.4956                 7.1825
 Frc consts  --     0.0951                 0.1270                 0.1744
 IR Inten    --     2.9527                 1.5277                 2.4589
 Raman Activ --     0.4906                 0.1048                 0.1911

                    16                     17                     18
                     A                      A                      A
 Frequencies --   215.8411               233.0006               264.8025
 Red. masses --     7.4496                 6.0414                 4.8389
 Frc consts  --     0.2045                 0.1932                 0.1999
 IR Inten    --     0.1379                 1.8897                16.8523
 Raman Activ --     3.8816                 0.3125                 0.1227

                    19                     20                     21
                     A                      A                      A
 Frequencies --   282.6082               293.2655               310.1457
 Red. masses --     5.5741                 4.5609                 5.5440
 Frc consts  --     0.2623                 0.2311                 0.3142
 IR Inten    --     7.4012                 3.4311                 1.0131
 Raman Activ --     0.1383                 0.1793                 0.7378

                    22                     23                     24
                     A                      A                      A
 Frequencies --   318.2000               329.0560               337.2714
 Red. masses --     5.8363                 6.1941                 5.2153
 Frc consts  --     0.3482                 0.3952                 0.3495
 IR Inten    --     4.1714                 1.7651                 1.8574
 Raman Activ --     0.9584                 3.5058                 1.1908

                    25                     26                     27
                     A                      A                      A
 Frequencies --   360.0856               386.8017               393.4274
 Red. masses --     6.0329                 4.3576                 6.3642
 Frc consts  --     0.4609                 0.3841                 0.5804
 IR Inten    --     8.7546                 2.3412                 1.7372
 Raman Activ --     1.9964                 0.4392                 0.3491

                    28                     29                     30
                     A                      A                      A
 Frequencies --   414.2581               429.9813               447.9533
 Red. masses --     5.4259                 6.4339                 5.1145
 Frc consts  --     0.5486                 0.7008                 0.6047
 IR Inten    --    11.3224                 3.7315                 3.6994
 Raman Activ --     1.6748                 5.5309                 5.7724

                    31                     32                     33
                     A                      A                      A
 Frequencies --   461.2584               489.1607               512.0083
 Red. masses --     4.0245                 4.2113                 4.3650
 Frc consts  --     0.5045                 0.5937                 0.6742
 IR Inten    --     3.7702                 6.5138                12.9084
 Raman Activ --     0.9102                 2.8958                 0.2880

                    34                     35                     36
                     A                      A                      A
 Frequencies --   521.0731               544.7566               580.3503
 Red. masses --     3.4132                 2.8972                 4.2800
 Frc consts  --     0.5460                 0.5066                 0.8493
 IR Inten    --    10.9573                10.6194                 2.6307
 Raman Activ --     4.5897                 2.0443                 1.9784

                    37                     38                     39
                     A                      A                      A
 Frequencies --   607.1578               612.0551               648.6855
 Red. masses --     4.4712                 3.3211                 2.8544
 Frc consts  --     0.9711                 0.7330                 0.7077
 IR Inten    --    23.0046                36.7118                33.4173
 Raman Activ --     0.2291                 0.5172                 0.4150

                    40                     41                     42
                     A                      A                      A
 Frequencies --   652.9137               675.5435               699.7948
 Red. masses --     3.1513                 1.4099                 1.0720
 Frc consts  --     0.7915                 0.3791                 0.3093
 IR Inten    --    21.2006                80.8254                77.6475
 Raman Activ --     0.4317                 1.9425                 2.3326

                    43                     44                     45
                     A                      A                      A
 Frequencies --   714.3448               718.0864               737.1698
 Red. masses --     1.7471                 1.7677                 1.0953
 Frc consts  --     0.5253                 0.5370                 0.3507
 IR Inten    --    78.5187                46.8115                97.6063
 Raman Activ --     0.6501                 2.7368                 1.5788

                    46                     47                     48
                     A                      A                      A
 Frequencies --   778.3024               841.8470               866.3369
 Red. masses --     1.0934                 1.0902                 1.7074
 Frc consts  --     0.3902                 0.4552                 0.7550
 IR Inten    --   158.5352                79.6171                 4.4422
 Raman Activ --     4.4649                 0.5447                 0.5954

                    49                     50                     51
                     A                      A                      A
 Frequencies --   875.7812               926.7176               947.9622
 Red. masses --     1.6001                 5.3830                 5.1069
 Frc consts  --     0.7231                 2.7238                 2.7039
 IR Inten    --     5.6043               134.0811                44.2934
 Raman Activ --     0.3353                 3.9162                 1.7377

                    52                     53                     54
                     A                      A                      A
 Frequencies --   980.2610               988.0767               996.2631
 Red. masses --     5.1115                 6.6691                 4.5964
 Frc consts  --     2.8939                 3.8362                 2.6879
 IR Inten    --   204.0850                 8.3712                52.8863
 Raman Activ --     2.6215                 2.7500                 0.7827

                    55                     56                     57
                     A                      A                      A
 Frequencies --  1006.5221              1010.5858              1018.2453
 Red. masses --     5.4020                 6.1079                 6.3069
 Frc consts  --     3.2244                 3.6753                 3.8527
 IR Inten    --   169.6542               103.3483               202.4686
 Raman Activ --     2.7997                 2.4780                 4.2558

                    58                     59                     60
                     A                      A                      A
 Frequencies --  1033.2781              1045.2944              1054.4959
 Red. masses --     4.0904                 5.0595                 4.1769
 Frc consts  --     2.5731                 3.2571                 2.7365
 IR Inten    --   193.6088                69.0680                31.3015
 Raman Activ --     4.5135                11.8354                 5.8055

                    61                     62                     63
                     A                      A                      A
 Frequencies --  1060.2058              1066.0628              1076.5643
 Red. masses --     2.8891                 4.0863                 2.8471
 Frc consts  --     1.9133                 2.7362                 1.9442
 IR Inten    --   157.6701                42.6696                31.8646
 Raman Activ --     2.0351                11.5680                17.8056

                    64                     65                     66
                     A                      A                      A
 Frequencies --  1084.8252              1095.0133              1101.7444
 Red. masses --     2.3132                 3.1643                 2.6942
 Frc consts  --     1.6039                 2.2354                 1.9268
 IR Inten    --    10.9567                63.8285                51.4227
 Raman Activ --     4.2914                 0.9012                 3.6847

                    67                     68                     69
                     A                      A                      A
 Frequencies --  1109.2736              1115.7909              1121.4738
 Red. masses --     2.4604                 2.7609                 2.0676
 Frc consts  --     1.7838                 2.0252                 1.5321
 IR Inten    --    24.3209                22.1443                 5.4411
 Raman Activ --     0.9074                14.4860                 8.7290

                    70                     71                     72
                     A                      A                      A
 Frequencies --  1125.6099              1131.7733              1140.4207
 Red. masses --     1.9467                 2.4501                 2.3463
 Frc consts  --     1.4532                 1.8490                 1.7979
 IR Inten    --     2.4945                19.4236                87.5289
 Raman Activ --     3.6915                 1.3682                 3.7672

                    73                     74                     75
                     A                      A                      A
 Frequencies --  1143.6295              1152.9812              1169.7258
 Red. masses --     1.6648                 1.7785                 1.3964
 Frc consts  --     1.2829                 1.3930                 1.1257
 IR Inten    --    42.7943                12.5865                30.1701
 Raman Activ --     1.9975                 1.9467                 1.5065

                    76                     77                     78
                     A                      A                      A
 Frequencies --  1180.0262              1183.7869              1199.1472
 Red. masses --     1.5631                 1.4734                 1.5664
 Frc consts  --     1.2824                 1.2165                 1.3271
 IR Inten    --    22.7450                16.4680                 4.4896
 Raman Activ --     3.7499                 4.4175                 2.6049

                    79                     80                     81
                     A                      A                      A
 Frequencies --  1221.5308              1237.5496              1248.1375
 Red. masses --     1.3824                 1.1843                 1.2166
 Frc consts  --     1.2153                 1.0687                 1.1167
 IR Inten    --     4.5271                14.1846                 5.2216
 Raman Activ --     0.8136                 1.5608                 2.3027

                    82                     83                     84
                     A                      A                      A
 Frequencies --  1251.0450              1254.0010              1267.3478
 Red. masses --     1.2727                 1.3180                 1.2226
 Frc consts  --     1.1736                 1.2212                 1.1570
 IR Inten    --    14.3418                 3.5358                 7.2022
 Raman Activ --     2.1420                 2.4225                 4.2119

                    85                     86                     87
                     A                      A                      A
 Frequencies --  1281.7315              1288.1707              1297.1829
 Red. masses --     1.3029                 1.2501                 1.3537
 Frc consts  --     1.2611                 1.2222                 1.3421
 IR Inten    --    12.8987                 5.1903                30.9713
 Raman Activ --     2.3025                 1.3326                 2.8880

                    88                     89                     90
                     A                      A                      A
 Frequencies --  1299.3904              1314.4593              1322.4954
 Red. masses --     1.2792                 1.2397                 1.2955
 Frc consts  --     1.2725                 1.2620                 1.3350
 IR Inten    --    19.3259                20.6875                18.2803
 Raman Activ --     3.8323                 7.1816                 4.4023

                    91                     92                     93
                     A                      A                      A
 Frequencies --  1324.9531              1327.2332              1328.7580
 Red. masses --     1.2008                 1.2997                 1.4546
 Frc consts  --     1.2420                 1.3490                 1.5131
 IR Inten    --    31.9085                41.1321                31.7814
 Raman Activ --     0.5819                 5.3665                 2.2555

                    94                     95                     96
                     A                      A                      A
 Frequencies --  1337.6408              1351.5446              1356.2404
 Red. masses --     1.5734                 1.4833                 1.1430
 Frc consts  --     1.6587                 1.5964                 1.2387
 IR Inten    --     3.1173                43.0856                36.9405
 Raman Activ --     9.5114                 6.2650                 4.7825

                    97                     98                     99
                     A                      A                      A
 Frequencies --  1367.1645              1379.6592              1392.4341
 Red. masses --     1.6389                 1.6261                 1.4493
 Frc consts  --     1.8049                 1.8236                 1.6556
 IR Inten    --    10.4913                14.1122                 0.2812
 Raman Activ --     5.5906                 4.3920                 9.7699

                   100                    101                    102
                     A                      A                      A
 Frequencies --  1399.4496              1430.9284              1446.7205
 Red. masses --     1.5793                 1.4154                 1.4092
 Frc consts  --     1.8224                 1.7076                 1.7377
 IR Inten    --    29.9678                21.8152                16.7037
 Raman Activ --     2.2415                 1.7915                 0.8486

                   103                    104                    105
                     A                      A                      A
 Frequencies --  1453.9620              1476.0069              1479.7005
 Red. masses --     1.2958                 1.0863                 1.0856
 Frc consts  --     1.6139                 1.3943                 1.4005
 IR Inten    --    15.9778                 5.9970                 3.3373
 Raman Activ --     2.1800                 3.7009                 4.1870

                   106                    107                    108
                     A                      A                      A
 Frequencies --  1486.8071              1517.4453              3250.1000
 Red. masses --     1.3763                 1.2755                 1.0653
 Frc consts  --     1.7925                 1.7304                 6.6302
 IR Inten    --    35.9868               100.1412               718.0622
 Raman Activ --     2.8617                 2.7148                84.9332

                   109                    110                    111
                     A                      A                      A
 Frequencies --  3257.7922              3263.9255              3266.0596
 Red. masses --     1.0564                 1.0614                 1.0807
 Frc consts  --     6.6058                 6.6623                 6.7922
 IR Inten    --    32.6047                92.3630                13.0435
 Raman Activ --    73.0730               211.8088               111.7013

                   112                    113                    114
                     A                      A                      A
 Frequencies --  3277.2134              3279.8927              3285.2407
 Red. masses --     1.0814                 1.0839                 1.0845
 Frc consts  --     6.8429                 6.8699                 6.8962
 IR Inten    --    61.0276                 3.9108                11.1075
 Raman Activ --    53.6317                79.4265                12.9871

                   115                    116                    117
                     A                      A                      A
 Frequencies --  3286.2460              3293.0534              3294.5997
 Red. masses --     1.0850                 1.0859                 1.0869
 Frc consts  --     6.9037                 6.9380                 6.9509
 IR Inten    --     8.1148                12.5095                 5.4120
 Raman Activ --    60.9478                76.9429                30.4486

                   118                    119                    120
                     A                      A                      A
 Frequencies --  3300.5230              3304.6922              3314.4405
 Red. masses --     1.0866                 1.0881                 1.0890
 Frc consts  --     6.9740                 7.0013                 7.0482
 IR Inten    --     8.9132                81.1198                30.0390
 Raman Activ --    17.8426                31.1849                72.5714

                   121                    122                    123
                     A                      A                      A
 Frequencies --  3320.3311              3321.2341              3328.0672
 Red. masses --     1.1046                 1.1068                 1.0678
 Frc consts  --     7.1748                 7.1932                 6.9684
 IR Inten    --    39.1113                62.9741               480.0048
 Raman Activ --    23.5987                50.9298               150.8538

                   124                    125                    126
                     A                      A                      A
 Frequencies --  3358.7523              3362.0580              3366.8493
 Red. masses --     1.0704                 1.0662                 1.0658
 Frc consts  --     7.1146                 7.1008                 7.1182
 IR Inten    --    34.4864                20.5055                49.2362
 Raman Activ --   175.3790               155.9987               115.2605

                   127                    128                    129
                     A                      A                      A
 Frequencies --  3373.3191              3884.7913              3888.8164
 Red. masses --     1.0678                 1.0675                 1.0673
 Frc consts  --     7.1588                 9.4921                 9.5094
 IR Inten    --    66.6653                52.5700                49.3069
 Raman Activ --   153.2920               102.4653               156.1183

 - Thermochemistry -
 -------------------
 Temperature   298.150 Kelvin.  Pressure   1.00000 Atm.
 Atom     1 has atomic number  8 and mass  15.99491

 Molecular mass:   342.11621 amu.
 Principal axes and moments of inertia in atomic units:
                           1         2         3
     Eigenvalues --  4242.66383********************
           X            0.99997  -0.00784   0.00089
           Y            0.00785   0.99996  -0.00314
           Z           -0.00086   0.00315   0.99999
 This molecule is an asymmetric top.
 Rotational symmetry number  1.
 Warning -- assumption of classical behavior for rotation
           may cause significant error
 Rotational temperatures (Kelvin)      0.02041     0.00699     0.00534
 Rotational constants (GHZ):           0.42538     0.14564     0.11131
    7 imaginary frequencies ignored.
 Zero-point vibrational energy     973494.4 (Joules/Mol)
                                  232.67075 (Kcal/Mol)
 Warning -- explicit consideration of  31 degrees of freedom as
           vibrations may cause significant error
 Vibrational temperatures:     42.08    88.99   111.01   120.17   154.01
          (Kelvin)            228.69   284.93   292.06   310.55   335.24
                              380.99   406.61   421.94   446.23   457.82
                              473.44   485.26   518.08   556.52   566.05
                              596.02   618.65   644.50   663.65   703.79
                              736.66   749.71   783.78   834.99   873.56
                              880.61   933.31   939.40   971.96  1006.85
                             1027.78  1033.16  1060.62  1119.80  1211.23
                             1246.46  1260.05  1333.34  1363.90  1410.38
                             1421.62  1433.40  1448.16  1454.01  1465.03
                             1486.65  1503.94  1517.18  1525.40  1533.82
                             1548.93  1560.82  1575.48  1585.16  1596.00
                             1605.37  1613.55  1619.50  1628.37  1640.81
                             1645.43  1658.88  1682.97  1697.79  1703.20
                             1725.30  1757.51  1780.56  1795.79  1799.97
                             1804.23  1823.43  1844.12  1853.39  1866.35
                             1869.53  1891.21  1902.77  1906.31  1909.59
                             1911.78  1924.56  1944.57  1951.33  1967.04
                             1985.02  2003.40  2013.49  2058.78  2081.51
                             2091.92  2123.64  2128.96  2139.18  2183.26
                             4676.16  4687.23  4696.05  4699.13  4715.17
                             4719.03  4726.72  4728.17  4737.96  4740.19
                             4748.71  4754.71  4768.73  4777.21  4778.51
                             4788.34  4832.49  4837.25  4844.14  4853.45
                             5589.34  5595.13

 Zero-point correction=                           0.370784 (Hartree/Particle)
 Thermal correction to Energy=                    0.388873
 Thermal correction to Enthalpy=                  0.389817
 Thermal correction to Gibbs Free Energy=         0.325077
 Sum of electronic and zero-point Energies=          -1297.603842
 Sum of electronic and thermal Energies=             -1297.585753
 Sum of electronic and thermal Enthalpies=           -1297.584809
 Sum of electronic and thermal Free Energies=        -1297.649549

                     E (Thermal)             CV                S
                      KCal/Mol        Cal/Mol-Kelvin    Cal/Mol-Kelvin
 Total                  244.022             75.520            136.257
 Electronic               0.000              0.000              0.000
 Translational            0.889              2.981             43.384
 Rotational               0.889              2.981             35.099
 Vibrational            242.244             69.558             57.774
 Vibration     1          0.593              1.984              5.880
 Vibration     2          0.597              1.973              4.397
 Vibration     3          0.599              1.964              3.962
 Vibration     4          0.600              1.961              3.806
 Vibration     5          0.606              1.944              3.322
 Vibration     6          0.621              1.893              2.562
 Vibration     7          0.637              1.843              2.151
 Vibration     8          0.639              1.836              2.106
 Vibration     9          0.645              1.817              1.994
 Vibration    10          0.654              1.790              1.856
 Vibration    11          0.671              1.738              1.630
 Vibration    12          0.682              1.706              1.518
 Vibration    13          0.688              1.686              1.455
 Vibration    14          0.699              1.654              1.362
 Vibration    15          0.705              1.639              1.319
 Vibration    16          0.712              1.617              1.265
 Vibration    17          0.718              1.601              1.225
 Vibration    18          0.735              1.554              1.122
 Vibration    19          0.755              1.498              1.012
 Vibration    20          0.761              1.484              0.987
 Vibration    21          0.778              1.439              0.912
 Vibration    22          0.791              1.405              0.859
 Vibration    23          0.807              1.365              0.802
 Vibration    24          0.819              1.336              0.762
 Vibration    25          0.845              1.274              0.686
 Vibration    26          0.867              1.223              0.629
 Vibration    27          0.876              1.203              0.607
 Vibration    28          0.900              1.151              0.555
 Vibration    29          0.937              1.074              0.485
 Vibration    30          0.966              1.017              0.438
 Vibration    31          0.971              1.006              0.429

 Normal termination of Gaussian 09 at Fri Mar 25 23:38:39 2016.
