 Gaussian 09, Revision B.01,
 Gaussian 09:  EM64L-G09RevB.01 12-Aug-2010

 -------------------------------------------------
 # freq=raman b3lyp/6-31+g(2d,p) geom=connectivity
 -------------------------------------------------

 -----------------
 550 8170/8170.com
 -----------------
 Symbolic Z-matrix:
 Charge =  0 Multiplicity = 1

                         Standard orientation:
 ---------------------------------------------------------------------
 Center     Atomic      Atomic             Coordinates (Angstroms)
 Number     Number       Type             X           Y           Z
 ---------------------------------------------------------------------
      1          8           0       -5.181189    0.027775   -0.567442
      2          6           0       -3.917651   -0.142081    0.091021
      3          6           0       -3.268739   -1.390066   -0.483087
      4          8           0       -3.941963   -2.657910   -0.473240
      5          1           0       -4.910977   -2.462722   -0.625384
      6          6           0       -1.974150   -1.492844    0.306880
      7          8           0       -1.236814   -2.635718   -0.152337
      8          1           0       -1.546066   -3.579782   -0.037996
      9          6           0       -3.699578    2.373110    0.326989
     10          8           0       -3.226813    3.565929   -0.316508
     11          1           0       -3.570108    4.421040    0.073293
     12          6           0       -3.001981    1.066724   -0.017547
     13          8           0       -1.755948    0.835966    0.656228
     14          6           0       -1.072779   -0.288847    0.085133
     15          8           0        0.153694   -0.481949    0.804356
     16          6           0        1.340503   -0.239077    0.035799
     17          6           0        1.966330    1.111630    0.347042
     18          8           0        1.029167    2.184570    0.511607
     19          1           0        0.108390    1.934893    0.212925
     20          6           0        3.185943    1.582647   -0.428123
     21          8           0        3.558767    2.946376   -0.179283
     22          1           0        3.145576    3.567257   -0.844703
     23          6           0        2.118574   -2.480951    0.206198
     24          8           0        3.243404   -3.364235    0.089668
     25          1           0        3.854643   -3.504040    0.868087
     26          6           0        2.585175   -1.043717    0.371653
     27          8           0        3.764256   -0.739359   -0.387804
     28          6           0        4.278916    0.573449   -0.116658
     29          8           0        5.580316    0.653456   -0.716929
     30          1           0        6.226968    0.248776   -0.134112
     31          1           0        4.437402    0.627260    0.940171
     32          1           0        2.957539    1.499466   -1.470146
     33          1           0        2.352078    0.968337    1.334749
     34          1           0        1.125901   -0.312043   -1.009916
     35          1           0        2.811737   -0.885672    1.405380
     36          1           0        1.535058   -2.762891    1.057619
     37          1           0        1.516832   -2.557485   -0.675249
     38          1           0       -5.876212   -0.361047   -0.031382
     39          1           0       -3.617904    2.518018    1.383981
     40          1           0       -4.736681    2.262358    0.088133
     41          1           0       -2.753226    1.144649   -1.055309
     42          1           0       -4.108252   -0.316996    1.129277
     43          1           0       -3.012330   -1.176491   -1.499719
     44          1           0       -2.191869   -1.596389    1.349366
     45          1           0       -0.886903   -0.135568   -0.957391
 ---------------------------------------------------------------------

 SCF Done:  E(RB3LYP) =  -1297.93792805     A.U. after   14 cycles

 The electronic state is 1-A.
 Alpha  occ. eigenvalues --  -19.19114 -19.18938 -19.18826 -19.18626 -19.16579
 Alpha  occ. eigenvalues --  -19.16458 -19.16011 -19.15736 -19.15144 -19.13714
 Alpha  occ. eigenvalues --  -19.13641 -10.31769 -10.29115 -10.27214 -10.27180
 Alpha  occ. eigenvalues --  -10.25925 -10.25805 -10.25348 -10.25101 -10.24426
 Alpha  occ. eigenvalues --  -10.24134 -10.23033 -10.22367  -1.10389  -1.07431
 Alpha  occ. eigenvalues --   -1.07197  -1.05109  -1.04731  -1.02686  -1.02137
 Alpha  occ. eigenvalues --   -1.01859  -1.01461  -0.99776  -0.99594  -0.82966
 Alpha  occ. eigenvalues --   -0.82507  -0.79436  -0.78038  -0.72153  -0.69694
 Alpha  occ. eigenvalues --   -0.67337  -0.64627  -0.64077  -0.62946  -0.61546
 Alpha  occ. eigenvalues --   -0.60870  -0.57203  -0.55860  -0.55520  -0.54468
 Alpha  occ. eigenvalues --   -0.54324  -0.53678  -0.53248  -0.52203  -0.50898
 Alpha  occ. eigenvalues --   -0.49934  -0.49867  -0.48561  -0.47267  -0.46264
 Alpha  occ. eigenvalues --   -0.46130  -0.45561  -0.44777  -0.43795  -0.43534
 Alpha  occ. eigenvalues --   -0.43265  -0.42878  -0.40900  -0.40524  -0.39307
 Alpha  occ. eigenvalues --   -0.38371  -0.37516  -0.36398  -0.36326  -0.35592
 Alpha  occ. eigenvalues --   -0.35236  -0.34484  -0.33765  -0.33351  -0.32888
 Alpha  occ. eigenvalues --   -0.31484  -0.31176  -0.30933  -0.30126  -0.29922
 Alpha  occ. eigenvalues --   -0.29157  -0.28723  -0.28444  -0.27747  -0.25806
 Alpha  occ. eigenvalues --   -0.25713
 Alpha virt. eigenvalues --   -0.03831  -0.01448  -0.01059  -0.00503  -0.00099
 Alpha virt. eigenvalues --    0.00553   0.01305   0.01867   0.02348   0.03169
 Alpha virt. eigenvalues --    0.03803   0.03924   0.04244   0.05298   0.05435

 Mulliken atomic charges:
              1
     1  O   -0.557715
     2  C   -0.325056
     3  C    0.193123
     4  O   -0.566711
     5  H    0.329637
     6  C    0.159814
     7  O   -0.581078
     8  H    0.365839
     9  C   -0.229560
    10  O   -0.519722
    11  H    0.339040
    12  C    0.439800
    13  O   -0.300224
    14  C   -0.052129
    15  O   -0.176520
    16  C    0.194208
    17  C    0.385741
    18  O   -0.588545
    19  H    0.347635
    20  C    0.037453
    21  O   -0.507115
    22  H    0.341777
    23  C   -0.176277
    24  O   -0.528167
    25  H    0.325801
    26  C   -0.253798
    27  O   -0.229601
    28  C    0.220804
    29  O   -0.516507
    30  H    0.325750
    31  H    0.099414
    32  H    0.105727
    33  H    0.085995
    34  H    0.111801
    35  H    0.110595
    36  H    0.158387
    37  H    0.159898
    38  H    0.335750
    39  H    0.145551
    40  H    0.169718
    41  H    0.121814
    42  H    0.123695
    43  H    0.118710
    44  H    0.127280
    45  H    0.127970
 Sum of Mulliken atomic charges =   0.00000

 Dipole moment (field-independent basis, Debye):
    X=             -6.8824    Y=             -0.7818    Z=              2.6417  Tot=              7.4133
 Quadrupole moment (field-independent basis, Debye-Ang):
   XX=           -114.5862   YY=           -142.5310   ZZ=           -138.4034
   XY=             -5.1361   XZ=              3.2033   YZ=             -8.8924

  Exact polarizability: 230.396  -0.401 202.418   0.193  -1.358 144.295
 Approx polarizability: 273.572  -1.472 261.544   1.775  -1.181 240.850

 ******    7 imaginary frequencies (negative Signs) ******

                     1                      2                      3
                     A                      A                      A
 Frequencies --  -276.5279              -250.5450              -203.5497
 Red. masses --     1.7672                 1.1057                 1.2971
 Frc consts  --     0.0796                 0.0409                 0.0317
 IR Inten    --     6.7164               105.5722               111.4623
 Raman Activ --     0.0856                 1.1507                 0.9793

                     4                      5                      6
                     A                      A                      A
 Frequencies --  -124.2262               -83.4618               -64.8986
 Red. masses --     2.1498                 5.2033                 5.2664
 Frc consts  --     0.0195                 0.0214                 0.0131
 IR Inten    --     4.8128                 0.5525                 1.1236
 Raman Activ --     0.1795                 0.0130                 0.1212

                     7                      8                      9
                     A                      A                      A
 Frequencies --   -39.0722                32.9688                58.6633
 Red. masses --     6.5267                 7.1316                 6.1702
 Frc consts  --     0.0059                 0.0046                 0.0125
 IR Inten    --     0.7190                 0.2164                 2.0403
 Raman Activ --     0.2004                 0.0886                 0.1061

                    10                     11                     12
                     A                      A                      A
 Frequencies --    77.1422                96.6661               113.2228
 Red. masses --     6.3541                 6.6584                 6.6683
 Frc consts  --     0.0223                 0.0367                 0.0504
 IR Inten    --     1.1383                 2.2006                 2.5742
 Raman Activ --     0.0288                 0.0535                 0.7290

                    13                     14                     15
                     A                      A                      A
 Frequencies --   143.1956               153.3349               176.2777
 Red. masses --     5.5506                 7.4513                 7.0871
 Frc consts  --     0.0671                 0.1032                 0.1298
 IR Inten    --     0.2873                 0.6102                 4.4896
 Raman Activ --     0.3215                 0.4967                 0.9892

                    16                     17                     18
                     A                      A                      A
 Frequencies --   205.8984               230.3051               261.4349
 Red. masses --     5.8046                 6.3188                 4.6117
 Frc consts  --     0.1450                 0.1975                 0.1857
 IR Inten    --     6.2079                 4.8218                13.3876
 Raman Activ --     0.5748                 1.4787                 0.1986

                    19                     20                     21
                     A                      A                      A
 Frequencies --   268.1496               281.7609               299.8585
 Red. masses --     4.5879                 5.2910                 5.8706
 Frc consts  --     0.1944                 0.2475                 0.3110
 IR Inten    --     4.6928                 3.5121                 2.0473
 Raman Activ --     0.6476                 0.3535                 0.8036

                    22                     23                     24
                     A                      A                      A
 Frequencies --   307.5419               322.5316               339.7091
 Red. masses --     4.7415                 5.0384                 5.9715
 Frc consts  --     0.2642                 0.3088                 0.4060
 IR Inten    --     3.3763                 2.0665                 1.9967
 Raman Activ --     1.6187                 0.5926                 4.6143

                    25                     26                     27
                     A                      A                      A
 Frequencies --   346.5311               373.2934               378.6702
 Red. masses --     7.3685                 4.1161                 7.8574
 Frc consts  --     0.5213                 0.3379                 0.6638
 IR Inten    --     1.4608                16.4959                 0.6948
 Raman Activ --     4.3848                 0.4825                 0.4408

                    28                     29                     30
                     A                      A                      A
 Frequencies --   408.6264               415.7363               432.6727
 Red. masses --     5.5481                 4.7438                 6.4152
 Frc consts  --     0.5458                 0.4831                 0.7076
 IR Inten    --     2.4249                 5.5049                 3.5383
 Raman Activ --     3.2403                 1.7800                 2.3524

                    31                     32                     33
                     A                      A                      A
 Frequencies --   459.9349               465.4144               481.1609
 Red. masses --     4.7674                 3.4513                 3.8762
 Frc consts  --     0.5942                 0.4405                 0.5287
 IR Inten    --    18.4035                 9.6245                59.9054
 Raman Activ --     3.9166                 1.2378                 2.4390

                    34                     35                     36
                     A                      A                      A
 Frequencies --   514.8442               531.5081               550.9464
 Red. masses --     3.6733                 5.2014                 2.2736
 Frc consts  --     0.5737                 0.8657                 0.4066
 IR Inten    --    19.4721                 9.7184                50.0939
 Raman Activ --     5.2393                 1.5158                 1.4711

                    37                     38                     39
                     A                      A                      A
 Frequencies --   557.5968               582.0228               587.8733
 Red. masses --     3.6441                 1.3629                 1.7017
 Frc consts  --     0.6675                 0.2720                 0.3465
 IR Inten    --    16.9809                51.8028               137.7442
 Raman Activ --     3.7025                 1.5322                 1.6951

                    40                     41                     42
                     A                      A                      A
 Frequencies --   598.9516               615.8825               623.8252
 Red. masses --     2.4687                 2.1134                 1.3411
 Frc consts  --     0.5218                 0.4723                 0.3075
 IR Inten    --    46.1488                28.3814                31.6035
 Raman Activ --     1.0007                 1.7147                 0.6120

                    43                     44                     45
                     A                      A                      A
 Frequencies --   632.1553               636.9819               652.4328
 Red. masses --     1.0927                 1.1098                 2.4329
 Frc consts  --     0.2573                 0.2653                 0.6102
 IR Inten    --   102.9947                93.4375                 2.6218
 Raman Activ --     2.2957                 1.0465                 0.7032

                    46                     47                     48
                     A                      A                      A
 Frequencies --   681.5805               702.5592               829.4804
 Red. masses --     3.1175                 1.0814                 2.7211
 Frc consts  --     0.8533                 0.3145                 1.1031
 IR Inten    --    10.3710                78.7722                 5.0875
 Raman Activ --     1.2743                 1.7199                 3.5238

                    49                     50                     51
                     A                      A                      A
 Frequencies --   842.7723               939.0596               943.4518
 Red. masses --     2.2796                 7.2787                 7.0464
 Frc consts  --     0.9540                 3.7817                 3.6954
 IR Inten    --     5.9530               216.7647               242.0370
 Raman Activ --     2.0628                 1.2425                 2.1922

                    52                     53                     54
                     A                      A                      A
 Frequencies --   968.8720               970.4037               977.9009
 Red. masses --     4.2022                 4.2585                 3.9215
 Frc consts  --     2.3241                 2.3627                 2.2095
 IR Inten    --    80.1480                12.8280                 8.2206
 Raman Activ --     2.0146                 4.4879                 1.0705

                    55                     56                     57
                     A                      A                      A
 Frequencies --   987.9110              1001.7412              1016.7802
 Red. masses --     8.3695                 6.8906                 8.4016
 Frc consts  --     4.8127                 4.0740                 5.1176
 IR Inten    --   258.5686               233.3821               372.7129
 Raman Activ --     3.4585                 4.7519                 0.6119

                    58                     59                     60
                     A                      A                      A
 Frequencies --  1021.9270              1028.3509              1051.1660
 Red. masses --     3.8251                 4.8883                 2.9748
 Frc consts  --     2.3536                 3.0458                 1.9366
 IR Inten    --    25.7847                58.5928               112.1627
 Raman Activ --     1.6199                11.1957                 5.3422

                    61                     62                     63
                     A                      A                      A
 Frequencies --  1053.5058              1057.8335              1069.9051
 Red. masses --     2.9568                 4.7488                 3.7403
 Frc consts  --     1.9335                 3.1309                 2.5226
 IR Inten    --     5.8871                13.8585                95.5840
 Raman Activ --     3.0593                15.7896                 2.0813

                    64                     65                     66
                     A                      A                      A
 Frequencies --  1079.7115              1091.3798              1107.9609
 Red. masses --     2.1985                 2.4253                 2.0906
 Frc consts  --     1.5100                 1.7020                 1.5121
 IR Inten    --    15.6032               103.7441                 7.5134
 Raman Activ --     2.5148                 5.5139                 2.9342

                    67                     68                     69
                     A                      A                      A
 Frequencies --  1114.7486              1125.4783              1137.8293
 Red. masses --     2.1185                 2.3325                 2.1170
 Frc consts  --     1.5510                 1.7408                 1.6148
 IR Inten    --    35.2449                 7.4753                 3.7488
 Raman Activ --     5.4965                 5.2862                 1.7186

                    70                     71                     72
                     A                      A                      A
 Frequencies --  1139.2697              1153.4671              1160.1281
 Red. masses --     2.1931                 2.2831                 2.8788
 Frc consts  --     1.6771                 1.7897                 2.2829
 IR Inten    --    45.7761                63.9022                49.4310
 Raman Activ --     6.6725                 1.2800                 3.6798

                    73                     74                     75
                     A                      A                      A
 Frequencies --  1170.6225              1172.3149              1184.0975
 Red. masses --     2.8969                 2.2121                 2.3816
 Frc consts  --     2.3390                 1.7912                 1.9674
 IR Inten    --     2.7655                18.3699                 2.8976
 Raman Activ --     1.7034                 2.0759                 1.2916

                    76                     77                     78
                     A                      A                      A
 Frequencies --  1202.8032              1212.0713              1213.9155
 Red. masses --     1.5316                 1.5182                 1.5441
 Frc consts  --     1.3055                 1.3141                 1.3406
 IR Inten    --    30.7725                 3.8543                18.9607
 Raman Activ --     4.1056                 2.6782                 3.3583

                    79                     80                     81
                     A                      A                      A
 Frequencies --  1250.9273              1252.9148              1270.4159
 Red. masses --     1.3727                 1.3400                 1.2338
 Frc consts  --     1.2656                 1.2394                 1.1732
 IR Inten    --    13.5820                13.9462                 4.4201
 Raman Activ --     2.7475                 1.6851                 0.6874

                    82                     83                     84
                     A                      A                      A
 Frequencies --  1274.9102              1277.6082              1294.5352
 Red. masses --     1.2358                 1.2089                 1.2108
 Frc consts  --     1.1834                 1.1626                 1.1955
 IR Inten    --     1.7509                40.0999                46.2605
 Raman Activ --     3.8056                 1.6497                 2.5913

                    85                     86                     87
                     A                      A                      A
 Frequencies --  1299.4151              1303.4767              1305.0012
 Red. masses --     1.2039                 1.2633                 1.2279
 Frc consts  --     1.1976                 1.2646                 1.2320
 IR Inten    --    32.4888                10.2284                12.3408
 Raman Activ --     2.0643                 3.4344                 4.5073

                    88                     89                     90
                     A                      A                      A
 Frequencies --  1306.8619              1311.8194              1333.9116
 Red. masses --     1.2653                 1.1748                 1.3040
 Frc consts  --     1.2732                 1.1911                 1.3670
 IR Inten    --    19.3882                40.8749                 5.2516
 Raman Activ --     1.8496                 6.6864                 1.7927

                    91                     92                     93
                     A                      A                      A
 Frequencies --  1340.9656              1351.0710              1357.7120
 Red. masses --     1.4591                 1.4271                 1.2613
 Frc consts  --     1.5459                 1.5348                 1.3698
 IR Inten    --    12.7152                11.9339                27.6619
 Raman Activ --     1.4844                 9.1457                 2.7678

                    94                     95                     96
                     A                      A                      A
 Frequencies --  1363.2170              1365.1021              1380.9837
 Red. masses --     1.2669                 1.2087                 1.2820
 Frc consts  --     1.3872                 1.3271                 1.4405
 IR Inten    --    26.8736                15.0556                37.9511
 Raman Activ --     2.2546                 3.3507                 4.9478

                    97                     98                     99
                     A                      A                      A
 Frequencies --  1387.4053              1391.4854              1401.1545
 Red. masses --     1.3016                 1.4155                 1.3818
 Frc consts  --     1.4761                 1.6148                 1.5983
 IR Inten    --    14.6425                 5.5987                 7.7373
 Raman Activ --     1.1074                 5.9900                12.9186

                   100                    101                    102
                     A                      A                      A
 Frequencies --  1418.2793              1427.1245              1429.3095
 Red. masses --     1.2188                 1.4359                 1.2670
 Frc consts  --     1.4445                 1.7230                 1.5250
 IR Inten    --    11.8780                31.9422                 7.8205
 Raman Activ --     3.4524                 1.7470                 0.5491

                   103                    104                    105
                     A                      A                      A
 Frequencies --  1430.7573              1444.8436              1446.8760
 Red. masses --     1.4291                 1.1100                 1.4013
 Frc consts  --     1.7237                 1.3653                 1.7283
 IR Inten    --    21.5384                 6.6561                10.1854
 Raman Activ --     0.5785                 4.9293                 5.9780

                   106                    107                    108
                     A                      A                      A
 Frequencies --  1460.2041              1482.7266              3236.1940
 Red. masses --     1.0774                 1.1566                 1.0824
 Frc consts  --     1.3534                 1.4982                 6.6792
 IR Inten    --     6.6923                34.3709                11.3621
 Raman Activ --     5.1709                 1.8750                 7.7576

                   109                    110                    111
                     A                      A                      A
 Frequencies --  3254.1471              3259.3971              3265.9653
 Red. masses --     1.0826                 1.0720                 1.0747
 Frc consts  --     6.7544                 6.7097                 6.7539
 IR Inten    --     8.6031                 5.9577                12.9713
 Raman Activ --    42.6968               121.2273                72.2564

                   112                    113                    114
                     A                      A                      A
 Frequencies --  3266.1282              3271.2276              3272.0409
 Red. masses --     1.0735                 1.0581                 1.0805
 Frc consts  --     6.7473                 6.6711                 6.8156
 IR Inten    --    23.1946                23.1268                 8.1843
 Raman Activ --    76.3231               137.2760                80.0607

                   115                    116                    117
                     A                      A                      A
 Frequencies --  3277.5520              3282.6120              3283.8368
 Red. masses --     1.0851                 1.0840                 1.0865
 Frc consts  --     6.8678                 6.8822                 6.9030
 IR Inten    --    17.5564                16.0796                56.8374
 Raman Activ --    10.1543                46.1892                31.0798

                   118                    119                    120
                     A                      A                      A
 Frequencies --  3292.0710              3302.3773              3316.8799
 Red. masses --     1.0858                 1.0864                 1.1049
 Frc consts  --     6.9330                 6.9808                 7.1617
 IR Inten    --    30.0723                77.9117                18.2243
 Raman Activ --    57.2106                 1.8259                45.8379

                   121                    122                    123
                     A                      A                      A
 Frequencies --  3340.7919              3362.0444              3366.7086
 Red. masses --     1.1048                 1.0678                 1.0681
 Frc consts  --     7.2647                 7.1110                 7.1332
 IR Inten    --    26.6754               171.0747                70.1180
 Raman Activ --    59.7745               163.8375               167.1917

                   124                    125                    126
                     A                      A                      A
 Frequencies --  3369.9739              3371.6392              3376.3901
 Red. masses --     1.0654                 1.0731                 1.0685
 Frc consts  --     7.1286                 7.1874                 7.1771
 IR Inten    --    27.1189                26.1112                84.7855
 Raman Activ --   115.2794                84.9474               139.0740

                   127                    128                    129
                     A                      A                      A
 Frequencies --  3384.0057              3883.0958              3888.3559
 Red. masses --     1.0681                 1.0676                 1.0673
 Frc consts  --     7.2062                 9.4846                 9.5078
 IR Inten    --    63.7938                66.4024                75.9317
 Raman Activ --   102.0970                95.5794               115.8431

 - Thermochemistry -
 -------------------
 Temperature   298.150 Kelvin.  Pressure   1.00000 Atm.
 Atom     1 has atomic number  8 and mass  15.99491

 Molecular mass:   342.11621 amu.
 Principal axes and moments of inertia in atomic units:
                           1         2         3
     Eigenvalues --  4650.17863********************
           X            0.99998  -0.00550   0.00133
           Y            0.00550   0.99998  -0.00368
           Z           -0.00131   0.00369   0.99999
 This molecule is an asymmetric top.
 Rotational symmetry number  1.
 Warning -- assumption of classical behavior for rotation
           may cause significant error
 Rotational temperatures (Kelvin)      0.01863     0.00682     0.00515
 Rotational constants (GHZ):           0.38810     0.14207     0.10734
    7 imaginary frequencies ignored.
 Zero-point vibrational energy     968443.9 (Joules/Mol)
                                  231.46364 (Kcal/Mol)
 Warning -- explicit consideration of  34 degrees of freedom as
           vibrations may cause significant error
 Vibrational temperatures:     47.43    84.40   110.99   139.08   162.90
          (Kelvin)            206.03   220.61   253.62   296.24   331.36
                              376.15   385.81   405.39   431.43   442.48
                              464.05   488.76   498.58   537.09   544.82
                              587.92   598.15   622.52   661.74   669.63
                              692.28   740.75   764.72   792.69   802.26
                              837.40   845.82   861.76   886.12   897.54
                              909.53   916.47   938.70   980.64  1010.82
                             1193.44  1212.56  1351.10  1357.42  1393.99
                             1396.19  1406.98  1421.38  1441.28  1462.92
                             1470.32  1479.57  1512.39  1515.76  1521.98
                             1539.35  1553.46  1570.25  1594.11  1603.87
                             1619.31  1637.08  1639.15  1659.58  1669.16
                             1684.26  1686.70  1703.65  1730.56  1743.90
                             1746.55  1799.80  1802.66  1827.84  1834.31
                             1838.19  1862.55  1869.57  1875.41  1877.60
                             1880.28  1887.41  1919.20  1929.35  1943.89
                             1953.44  1961.36  1964.08  1986.92  1996.16
                             2002.03  2015.95  2040.59  2053.31  2056.46
                             2058.54  2078.81  2081.73  2100.91  2133.31
                             4656.16  4681.99  4689.54  4698.99  4699.22
                             4706.56  4707.73  4715.66  4722.94  4724.70
                             4736.55  4751.38  4772.24  4806.65  4837.23
                             4843.94  4848.63  4851.03  4857.87  4868.82
                             5586.90  5594.47

 Zero-point correction=                           0.368861 (Hartree/Particle)
 Thermal correction to Energy=                    0.387649
 Thermal correction to Enthalpy=                  0.388594
 Thermal correction to Gibbs Free Energy=         0.322620
 Sum of electronic and zero-point Energies=          -1297.569067
 Sum of electronic and thermal Energies=             -1297.550279
 Sum of electronic and thermal Enthalpies=           -1297.549334
 Sum of electronic and thermal Free Energies=        -1297.615308

                     E (Thermal)             CV                S
                      KCal/Mol        Cal/Mol-Kelvin    Cal/Mol-Kelvin
 Total                  243.254             77.663            138.853
 Electronic               0.000              0.000              0.000
 Translational            0.889              2.981             43.384
 Rotational               0.889              2.981             35.250
 Vibrational            241.476             71.702             60.218
 Vibration     1          0.594              1.983              5.642
 Vibration     2          0.596              1.974              4.502
 Vibration     3          0.599              1.964              3.962
 Vibration     4          0.603              1.952              3.520
 Vibration     5          0.607              1.938              3.213
 Vibration     6          0.616              1.910              2.761
 Vibration     7          0.619              1.899              2.630
 Vibration     8          0.628              1.872              2.367
 Vibration     9          0.640              1.831              2.080
 Vibration    10          0.652              1.795              1.877
 Vibration    11          0.669              1.743              1.652
 Vibration    12          0.673              1.732              1.608
 Vibration    13          0.681              1.707              1.523
 Vibration    14          0.692              1.674              1.418
 Vibration    15          0.697              1.659              1.376
 Vibration    16          0.708              1.630              1.297
 Vibration    17          0.720              1.596              1.214
 Vibration    18          0.725              1.582              1.182
 Vibration    19          0.745              1.527              1.066
 Vibration    20          0.749              1.516              1.044
 Vibration    21          0.773              1.451              0.931
 Vibration    22          0.779              1.436              0.907
 Vibration    23          0.794              1.399              0.850
 Vibration    24          0.818              1.339              0.766
 Vibration    25          0.823              1.327              0.751
 Vibration    26          0.837              1.292              0.707
 Vibration    27          0.870              1.217              0.622
 Vibration    28          0.886              1.180              0.584
 Vibration    29          0.906              1.138              0.542
 Vibration    30          0.913              1.123              0.529
 Vibration    31          0.939              1.070              0.482
 Vibration    32          0.945              1.058              0.471
 Vibration    33          0.957              1.034              0.451
 Vibration    34          0.975              0.998              0.423

 Normal termination of Gaussian 09 at Mon Apr  4 21:04:03 2016.
