 Gaussian 09, Revision B.01,
 Gaussian 09:  EM64L-G09RevB.01 12-Aug-2010

 -------------------------------------------------
 # freq=raman b3lyp/6-31+g(2d,p) geom=connectivity
 -------------------------------------------------

 -----------------
 493 6595/6595.com
 -----------------
 Symbolic Z-matrix:
 Charge =  0 Multiplicity = 1

                         Standard orientation:
 ---------------------------------------------------------------------
 Center     Atomic      Atomic             Coordinates (Angstroms)
 Number     Number       Type             X           Y           Z
 ---------------------------------------------------------------------
      1          8           0       -4.966132   -0.472627    0.497401
      2          6           0       -3.707580   -0.123881   -0.096996
      3          6           0       -3.221124    1.266273    0.282417
      4          8           0       -4.162995    2.231781   -0.205972
      5          1           0       -5.059225    1.928588    0.117509
      6          6           0       -1.824760    1.593806   -0.223173
      7          8           0       -1.327186    2.793442    0.386869
      8          1           0       -0.514223    3.069753   -0.124704
      9          6           0       -3.026294   -2.577584   -0.134348
     10          8           0       -4.080979   -3.235090    0.582569
     11          1           0       -3.971742   -4.224739    0.489419
     12          6           0       -2.663104   -1.160789    0.281908
     13          8           0       -1.418215   -0.833961   -0.352474
     14          6           0       -0.868758    0.437684    0.022306
     15          8           0        0.277316    0.597075   -0.826598
     16          6           0        1.414694    0.153743   -0.073207
     17          6           0        2.043731   -1.130372   -0.591223
     18          8           0        1.068166   -2.181532   -0.608876
     19          1           0        0.204900   -1.825176   -0.967050
     20          6           0        3.317270   -1.526198    0.137643
     21          8           0        4.032791   -2.625865   -0.444307
     22          1           0        4.848960   -2.633518    0.133478
     23          6           0        2.236107    2.612692    0.238156
     24          8           0        1.203993    3.307150   -0.477236
     25          1           0        1.481825    4.243389   -0.263340
     26          6           0        2.542229    1.171463   -0.132992
     27          8           0        3.703950    0.833170    0.636282
     28          6           0        4.289807   -0.358731    0.093526
     29          8           0        5.364337   -0.632969    1.005231
     30          1           0        6.155411   -0.856659    0.509484
     31          1           0        4.656644   -0.193979   -0.898032
     32          1           0        3.084902   -1.755021    1.156733
     33          1           0        2.318443   -0.948581   -1.609253
     34          1           0        1.124062    0.013502    0.946972
     35          1           0        2.857950    1.191394   -1.155158
     36          1           0        3.140155    3.173112    0.121854
     37          1           0        1.974019    2.628346    1.275443
     38          1           0       -5.596657   -0.690440   -0.192959
     39          1           0       -2.146274   -3.179313   -0.042764
     40          1           0       -3.301876   -2.552500   -1.167946
     41          1           0       -2.525682   -1.138483    1.342813
     42          1           0       -3.827931   -0.150614   -1.159870
     43          1           0       -3.206986    1.329660    1.350445
     44          1           0       -1.883772    1.757694   -1.278899
     45          1           0       -0.566582    0.420358    1.048605
 ---------------------------------------------------------------------

 SCF Done:  E(RB3LYP) =  -1297.99540249     A.U. after   13 cycles

 The electronic state is 1-A.
 Alpha  occ. eigenvalues --  -19.18954 -19.18945 -19.18670 -19.18296 -19.18025
 Alpha  occ. eigenvalues --  -19.16792 -19.16681 -19.16021 -19.15055 -19.14064
 Alpha  occ. eigenvalues --  -19.13837 -10.30853 -10.30218 -10.25794 -10.25555
 Alpha  occ. eigenvalues --  -10.25224 -10.25149 -10.25071 -10.24750 -10.24567
 Alpha  occ. eigenvalues --  -10.24242 -10.24088 -10.24008  -1.10307  -1.09709
 Alpha  occ. eigenvalues --   -1.05999  -1.05263  -1.04388  -1.04032  -1.03114
 Alpha  occ. eigenvalues --   -1.02441  -1.02055  -1.00894  -1.00361  -0.82084
 Alpha  occ. eigenvalues --   -0.79988  -0.79323  -0.78269  -0.71630  -0.69963
 Alpha  occ. eigenvalues --   -0.67178  -0.65480  -0.63165  -0.62594  -0.61730
 Alpha  occ. eigenvalues --   -0.59922  -0.56859  -0.55833  -0.54586  -0.54433
 Alpha  occ. eigenvalues --   -0.53950  -0.53334  -0.52866  -0.51608  -0.51382
 Alpha  occ. eigenvalues --   -0.51110  -0.50017  -0.49423  -0.48626  -0.46714
 Alpha  occ. eigenvalues --   -0.45873  -0.44875  -0.44650  -0.43966  -0.43589
 Alpha  occ. eigenvalues --   -0.42834  -0.42111  -0.41154  -0.39989  -0.39771
 Alpha  occ. eigenvalues --   -0.38920  -0.38727  -0.38242  -0.36911  -0.35910
 Alpha  occ. eigenvalues --   -0.35696  -0.35009  -0.34748  -0.34267  -0.33912
 Alpha  occ. eigenvalues --   -0.33210  -0.31593  -0.31052  -0.30593  -0.30222
 Alpha  occ. eigenvalues --   -0.29498  -0.28745  -0.28497  -0.27762  -0.26608
 Alpha  occ. eigenvalues --   -0.26321
 Alpha virt. eigenvalues --   -0.02139  -0.02052  -0.01677  -0.00079   0.00404
 Alpha virt. eigenvalues --    0.00881   0.01730   0.02294   0.03439   0.03544
 Alpha virt. eigenvalues --    0.03778   0.04251   0.04945   0.05360   0.05547

 Mulliken atomic charges:
              1
     1  O   -0.540540
     2  C   -0.139274
     3  C    0.361817
     4  O   -0.550752
     5  H    0.340399
     6  C   -0.347479
     7  O   -0.548057
     8  H    0.400039
     9  C   -0.221154
    10  O   -0.521285
    11  H    0.338386
    12  C    0.182438
    13  O   -0.295106
    14  C    0.386164
    15  O   -0.168739
    16  C    0.423930
    17  C   -0.042585
    18  O   -0.542736
    19  H    0.362711
    20  C    0.102593
    21  O   -0.522668
    22  H    0.329104
    23  C   -0.348679
    24  O   -0.535317
    25  H    0.351731
    26  C   -0.040247
    27  O   -0.253173
    28  C    0.104714
    29  O   -0.549216
    30  H    0.337890
    31  H    0.141694
    32  H    0.134836
    33  H    0.116103
    34  H    0.100687
    35  H    0.113446
    36  H    0.145934
    37  H    0.159551
    38  H    0.342013
    39  H    0.148964
    40  H    0.135697
    41  H    0.113310
    42  H    0.118624
    43  H    0.123965
    44  H    0.134697
    45  H    0.115569
 Sum of Mulliken atomic charges =   0.00000

 Dipole moment (field-independent basis, Debye):
    X=              2.5553    Y=              0.1775    Z=             -1.3190  Tot=              2.8811
 Quadrupole moment (field-independent basis, Debye-Ang):
   XX=           -116.8828   YY=           -136.5170   ZZ=           -142.7932
   XY=             17.3170   XZ=              3.4128   YZ=             -1.2774

  Exact polarizability: 230.023  -0.540 195.729   1.308   0.747 144.427
 Approx polarizability: 271.525   0.629 255.357   1.008   0.046 241.751

 ******    6 imaginary frequencies (negative Signs) ******

                     1                      2                      3
                     A                      A                      A
 Frequencies --  -274.0535              -265.1523              -218.3968
 Red. masses --     1.6524                 1.7751                 1.2652
 Frc consts  --     0.0731                 0.0735                 0.0356
 IR Inten    --    29.7013                 2.3920                76.8945
 Raman Activ --     0.2027                 0.0942                 0.7665

                     4                      5                      6
                     A                      A                      A
 Frequencies --  -177.6229               -76.1388               -47.5876
 Red. masses --     1.3177                 6.4732                 5.7854
 Frc consts  --     0.0245                 0.0221                 0.0077
 IR Inten    --   122.1475                 1.7337                 0.6262
 Raman Activ --     0.7419                 0.1560                 0.0476

                     7                      8                      9
                     A                      A                      A
 Frequencies --    35.0600                51.7035                62.5893
 Red. masses --     6.7334                 6.1432                 6.5045
 Frc consts  --     0.0049                 0.0097                 0.0150
 IR Inten    --     1.3354                 1.1396                 0.9578
 Raman Activ --     0.0594                 0.0802                 0.0803

                    10                     11                     12
                     A                      A                      A
 Frequencies --    75.0147                90.1521               128.4386
 Red. masses --     5.7821                 6.1641                 5.3346
 Frc consts  --     0.0192                 0.0295                 0.0518
 IR Inten    --     5.9173                 0.1653                 1.4891
 Raman Activ --     0.0958                 0.1687                 0.0382

                    13                     14                     15
                     A                      A                      A
 Frequencies --   146.8845               184.5274               189.4253
 Red. masses --     6.3336                 6.9801                 5.9828
 Frc consts  --     0.0805                 0.1400                 0.1265
 IR Inten    --     1.9921                 0.1528                 1.8502
 Raman Activ --     0.4877                 0.2614                 0.9766

                    16                     17                     18
                     A                      A                      A
 Frequencies --   211.9878               235.7406               255.2440
 Red. masses --     6.5808                 6.0259                 4.4091
 Frc consts  --     0.1742                 0.1973                 0.1692
 IR Inten    --     0.3422                 3.9302                20.5639
 Raman Activ --     1.2522                 0.9284                 0.1716

                    19                     20                     21
                     A                      A                      A
 Frequencies --   274.9699               290.1667               301.0020
 Red. masses --     4.9595                 5.2951                 3.9889
 Frc consts  --     0.2209                 0.2627                 0.2129
 IR Inten    --     0.4824                 2.1117                 2.2533
 Raman Activ --     0.0595                 0.1554                 0.3279

                    22                     23                     24
                     A                      A                      A
 Frequencies --   309.6336               321.2035               330.6725
 Red. masses --     6.4579                 5.9804                 4.6012
 Frc consts  --     0.3648                 0.3635                 0.2964
 IR Inten    --     3.8076                 0.9133                 2.6087
 Raman Activ --     1.5288                 3.1134                 2.4994

                    25                     26                     27
                     A                      A                      A
 Frequencies --   348.6598               355.4582               386.7375
 Red. masses --     6.2956                 4.6049                 6.9621
 Frc consts  --     0.4509                 0.3428                 0.6135
 IR Inten    --     7.9989                11.3948                 1.2402
 Raman Activ --     3.2764                 0.3395                 0.8198

                    28                     29                     30
                     A                      A                      A
 Frequencies --   408.9058               411.2043               429.2272
 Red. masses --     4.0837                 6.5510                 5.0134
 Frc consts  --     0.4023                 0.6526                 0.5442
 IR Inten    --    17.9515                 3.0854                 4.4397
 Raman Activ --     1.3419                 6.5003                 3.3279

                    31                     32                     33
                     A                      A                      A
 Frequencies --   439.1121               481.2354               495.7910
 Red. masses --     4.2109                 5.0645                 3.9371
 Frc consts  --     0.4784                 0.6910                 0.5702
 IR Inten    --     0.6417                 6.0637                11.8436
 Raman Activ --     2.9722                 1.9319                 1.9180

                    34                     35                     36
                     A                      A                      A
 Frequencies --   508.4027               538.1195               576.7755
 Red. masses --     4.0734                 2.9012                 5.6258
 Frc consts  --     0.6203                 0.4950                 1.1027
 IR Inten    --    13.9789                 5.8027                 8.4492
 Raman Activ --     2.9293                 2.5233                 2.4333

                    37                     38                     39
                     A                      A                      A
 Frequencies --   581.5414               600.8241               623.5036
 Red. masses --     2.8297                 6.1628                 5.5891
 Frc consts  --     0.5638                 1.3108                 1.2802
 IR Inten    --    42.3489                 8.5753                18.7644
 Raman Activ --     0.2211                 0.5517                 0.5946

                    40                     41                     42
                     A                      A                      A
 Frequencies --   654.8844               680.2351               696.0892
 Red. masses --     3.8006                 4.5974                 1.1105
 Frc consts  --     0.9604                 1.2534                 0.3170
 IR Inten    --    27.8095                30.7246                88.6966
 Raman Activ --     0.3888                 0.7969                 2.1587

                    43                     44                     45
                     A                      A                      A
 Frequencies --   725.2092               753.5056               763.2620
 Red. masses --     1.0854                 1.1302                 1.0708
 Frc consts  --     0.3363                 0.3781                 0.3675
 IR Inten    --   159.5725               106.4977                91.0502
 Raman Activ --     4.9965                 1.5210                 1.6228

                    46                     47                     48
                     A                      A                      A
 Frequencies --   792.9815               820.1353               849.6485
 Red. masses --     1.0947                 1.0798                 1.7734
 Frc consts  --     0.4056                 0.4279                 0.7543
 IR Inten    --    84.0614               136.3487                 5.8264
 Raman Activ --     1.1797                 1.8285                 0.7884

                    49                     50                     51
                     A                      A                      A
 Frequencies --   868.3473               941.3843               962.9443
 Red. masses --     1.7601                 5.6557                 5.6228
 Frc consts  --     0.7819                 2.9531                 3.0719
 IR Inten    --     2.9403               165.7703                22.1794
 Raman Activ --     0.9439                 3.7400                 0.7783

                    52                     53                     54
                     A                      A                      A
 Frequencies --   974.3392               982.5306               989.8113
 Red. masses --     4.4907                 6.9659                 6.6798
 Frc consts  --     2.5118                 3.9620                 3.8558
 IR Inten    --    35.9303               260.6485               310.5586
 Raman Activ --     2.3715                 0.9589                 1.0248

                    55                     56                     57
                     A                      A                      A
 Frequencies --   996.1655              1015.7683              1026.2184
 Red. masses --     4.8001                 5.8433                 5.7521
 Frc consts  --     2.8065                 3.5522                 3.5690
 IR Inten    --    68.4697                38.3623               133.5791
 Raman Activ --     1.0402                 2.6870                 2.6504

                    58                     59                     60
                     A                      A                      A
 Frequencies --  1037.6233              1057.0501              1060.7883
 Red. masses --     6.7826                 5.2755                 6.0424
 Frc consts  --     4.3025                 3.4730                 4.0061
 IR Inten    --   268.6780               121.4788               139.4795
 Raman Activ --     2.4572                 6.1698                 3.4295

                    61                     62                     63
                     A                      A                      A
 Frequencies --  1071.8430              1076.8881              1087.2678
 Red. masses --     3.8717                 4.9233                 3.4265
 Frc consts  --     2.6207                 3.3639                 2.3866
 IR Inten    --     3.6169                29.1207                10.4220
 Raman Activ --     5.4589                 1.8652                17.2389

                    64                     65                     66
                     A                      A                      A
 Frequencies --  1097.1211              1103.6181              1108.2783
 Red. masses --     3.5965                 2.5018                 2.6726
 Frc consts  --     2.5506                 1.7953                 1.9341
 IR Inten    --    16.5799                52.5590                66.1041
 Raman Activ --    13.8929                 3.0065                 6.4961

                    67                     68                     69
                     A                      A                      A
 Frequencies --  1115.5940              1128.1816              1131.0128
 Red. masses --     2.6789                 3.5561                 3.1636
 Frc consts  --     1.9644                 2.6668                 2.3843
 IR Inten    --     8.4297                18.5505                34.7859
 Raman Activ --     7.3896                 2.3709                 2.7430

                    70                     71                     72
                     A                      A                      A
 Frequencies --  1144.4942              1151.1183              1159.4282
 Red. masses --     2.0458                 1.7122                 2.0243
 Frc consts  --     1.5789                 1.3367                 1.6033
 IR Inten    --    10.6994                11.3077                24.8085
 Raman Activ --     2.5238                 2.3541                 7.7221

                    73                     74                     75
                     A                      A                      A
 Frequencies --  1173.2780              1183.6771              1202.6759
 Red. masses --     1.4290                 2.0738                 1.5678
 Frc consts  --     1.1590                 1.7119                 1.3361
 IR Inten    --     5.8846                 4.9716                 7.0402
 Raman Activ --     0.9833                 2.2498                 2.2238

                    76                     77                     78
                     A                      A                      A
 Frequencies --  1204.8875              1222.0160              1234.0555
 Red. masses --     1.2969                 1.8486                 1.2614
 Frc consts  --     1.1093                 1.6264                 1.1318
 IR Inten    --     7.4060                 4.0331                10.5654
 Raman Activ --     3.0954                 1.2639                 1.6584

                    79                     80                     81
                     A                      A                      A
 Frequencies --  1235.8905              1251.0400              1261.5966
 Red. masses --     1.2698                 1.2336                 1.3645
 Frc consts  --     1.1428                 1.1376                 1.2796
 IR Inten    --    17.0705                 6.9978                 2.9864
 Raman Activ --     0.5509                 0.9661                 0.8768

                    82                     83                     84
                     A                      A                      A
 Frequencies --  1271.5163              1286.3735              1288.1937
 Red. masses --     1.2133                 1.2975                 1.4316
 Frc consts  --     1.1557                 1.2650                 1.3997
 IR Inten    --     6.1621                 4.5264                44.9445
 Raman Activ --     1.2552                 2.1446                 1.8908

                    85                     86                     87
                     A                      A                      A
 Frequencies --  1296.9302              1304.5013              1311.4976
 Red. masses --     1.3000                 1.2906                 1.2949
 Frc consts  --     1.2883                 1.2940                 1.3123
 IR Inten    --     5.7849                 6.8561                26.4603
 Raman Activ --     2.0787                 4.2232                 6.9948

                    88                     89                     90
                     A                      A                      A
 Frequencies --  1326.0562              1328.4011              1332.6622
 Red. masses --     1.3382                 1.2614                 1.3073
 Frc consts  --     1.3865                 1.3115                 1.3680
 IR Inten    --     9.7535                11.4038                42.3398
 Raman Activ --     5.5938                 7.7918                 2.9501

                    91                     92                     93
                     A                      A                      A
 Frequencies --  1337.2367              1340.7745              1355.3422
 Red. masses --     1.1574                 1.1736                 1.2711
 Frc consts  --     1.2194                 1.2431                 1.3757
 IR Inten    --    47.0830                16.8143                20.1894
 Raman Activ --     2.9873                 6.3898                 1.5581

                    94                     95                     96
                     A                      A                      A
 Frequencies --  1359.1674              1370.1051              1378.3583
 Red. masses --     1.3865                 1.7090                 1.2148
 Frc consts  --     1.5091                 1.8901                 1.3598
 IR Inten    --     6.3398                 3.4812                42.9207
 Raman Activ --     3.5014                 5.6321                 1.5051

                    97                     98                     99
                     A                      A                      A
 Frequencies --  1390.3358              1396.8146              1448.5082
 Red. masses --     1.3930                 1.4540                 1.3526
 Frc consts  --     1.5865                 1.6715                 1.6721
 IR Inten    --     1.1472                 4.1810                47.5729
 Raman Activ --     4.1168                 5.4267                 0.7690

                   100                    101                    102
                     A                      A                      A
 Frequencies --  1455.4649              1461.9711              1471.5957
 Red. masses --     1.2003                 1.3262                 1.2679
 Frc consts  --     1.4981                 1.6701                 1.6177
 IR Inten    --    16.2937                18.4512                13.5584
 Raman Activ --    11.9137                 5.0136                 1.4394

                   103                    104                    105
                     A                      A                      A
 Frequencies --  1475.3123              1476.2184              1491.2365
 Red. masses --     1.1040                 1.0742                 1.4036
 Frc consts  --     1.4157                 1.3792                 1.8390
 IR Inten    --     5.7193                 4.1622                57.2319
 Raman Activ --     3.1530                 4.5790                 1.9569

                   106                    107                    108
                     A                      A                      A
 Frequencies --  1497.0284              1532.1835              3253.2878
 Red. masses --     1.3262                 1.2430                 1.0781
 Frc consts  --     1.7512                 1.7193                 6.7228
 IR Inten    --    27.1773                37.3618                 6.4444
 Raman Activ --     0.8857                 0.7771                33.9686

                   109                    110                    111
                     A                      A                      A
 Frequencies --  3254.9777              3259.7110              3261.6541
 Red. masses --     1.0580                 1.0620                 1.0828
 Frc consts  --     6.6041                 6.6489                 6.7867
 IR Inten    --    30.0473                81.4593                11.1026
 Raman Activ --    91.3655                31.8729                55.8062

                   112                    113                    114
                     A                      A                      A
 Frequencies --  3272.4292              3273.1463              3274.7655
 Red. masses --     1.0836                 1.0826                 1.0832
 Frc consts  --     6.8371                 6.8337                 6.8440
 IR Inten    --    11.7690                 1.4969                 2.9464
 Raman Activ --     5.6963               219.6725                72.1310

                   115                    116                    117
                     A                      A                      A
 Frequencies --  3285.4860              3287.0334              3290.8900
 Red. masses --     1.0837                 1.0848                 1.0840
 Frc consts  --     6.8925                 6.9058                 6.9170
 IR Inten    --    48.1294                 6.2449                40.8866
 Raman Activ --    21.3884               126.1976                28.7918

                   118                    119                    120
                     A                      A                      A
 Frequencies --  3293.1970              3299.3802              3302.0206
 Red. masses --     1.0710                 1.0859                 1.0868
 Frc consts  --     6.8432                 6.9648                 6.9817
 IR Inten    --   452.2412                31.9936               119.8655
 Raman Activ --   183.8583                27.2237                 8.9691

                   121                    122                    123
                     A                      A                      A
 Frequencies --  3311.1897              3314.3016              3341.0468
 Red. masses --     1.1047                 1.1060                 1.0666
 Frc consts  --     7.1359                 7.1581                 7.0148
 IR Inten    --    48.5204                80.2972               317.9214
 Raman Activ --    28.7924                32.1802               121.5495

                   124                    125                    126
                     A                      A                      A
 Frequencies --  3359.8807              3366.8653              3368.2129
 Red. masses --     1.0642                 1.0654                 1.0679
 Frc consts  --     7.0783                 7.1157                 7.1383
 IR Inten    --    36.3935                29.4162                45.8970
 Raman Activ --    91.6803                90.3707               178.0897

                   127                    128                    129
                     A                      A                      A
 Frequencies --  3375.6987              3889.1762              3890.0371
 Red. masses --     1.0657                 1.0677                 1.0673
 Frc consts  --     7.1549                 9.5149                 9.5160
 IR Inten    --    46.2938                83.1735                64.8887
 Raman Activ --   120.3052                76.6597               117.4145

 - Thermochemistry -
 -------------------
 Temperature   298.150 Kelvin.  Pressure   1.00000 Atm.
 Atom     1 has atomic number  8 and mass  15.99491

 Molecular mass:   342.11621 amu.
 Principal axes and moments of inertia in atomic units:
                           1         2         3
     Eigenvalues --  4491.58307********************
           X            0.99997   0.00832   0.00019
           Y           -0.00832   0.99996   0.00144
           Z           -0.00018  -0.00144   1.00000
 This molecule is an asymmetric top.
 Rotational symmetry number  1.
 Warning -- assumption of classical behavior for rotation
           may cause significant error
 Rotational temperatures (Kelvin)      0.01928     0.00710     0.00539
 Rotational constants (GHZ):           0.40181     0.14792     0.11237
    6 imaginary frequencies ignored.
 Zero-point vibrational energy     977833.4 (Joules/Mol)
                                  233.70778 (Kcal/Mol)
 Warning -- explicit consideration of  32 degrees of freedom as
           vibrations may cause significant error
 Vibrational temperatures:     50.44    74.39    90.05   107.93   129.71
          (Kelvin)            184.79   211.33   265.49   272.54   305.00
                              339.18   367.24   395.62   417.48   433.07
                              445.49   462.14   475.76   501.64   511.42
                              556.43   588.32   591.63   617.56   631.78
                              692.39   713.33   731.48   774.23   829.85
                              836.71   864.45   897.08   942.23   978.71
                             1001.52  1043.41  1084.13  1098.16  1140.92
                             1179.99  1222.45  1249.36  1354.44  1385.46
                             1401.86  1413.64  1424.12  1433.26  1461.46
                             1476.50  1492.91  1520.86  1526.24  1542.14
                             1549.40  1564.33  1578.51  1587.86  1594.56
                             1605.09  1623.20  1627.27  1646.67  1656.20
                             1668.16  1688.08  1703.05  1730.38  1733.56
                             1758.21  1775.53  1778.17  1799.97  1815.15
                             1829.43  1850.80  1853.42  1865.99  1876.88
                             1886.95  1907.90  1911.27  1917.40  1923.98
                             1929.07  1950.03  1955.54  1971.27  1983.15
                             2000.38  2009.70  2084.08  2094.09  2103.45
                             2117.30  2122.64  2123.95  2145.55  2153.89
                             2204.47  4680.75  4683.18  4689.99  4692.79
                             4708.29  4709.32  4711.65  4727.08  4729.30
                             4734.85  4738.17  4747.07  4750.87  4764.06
                             4768.53  4807.02  4834.11  4844.16  4846.10
                             4856.87  5595.65  5596.89

 Zero-point correction=                           0.372437 (Hartree/Particle)
 Thermal correction to Energy=                    0.391527
 Thermal correction to Enthalpy=                  0.392471
 Thermal correction to Gibbs Free Energy=         0.325309
 Sum of electronic and zero-point Energies=          -1297.622965
 Sum of electronic and thermal Energies=             -1297.603875
 Sum of electronic and thermal Enthalpies=           -1297.602931
 Sum of electronic and thermal Free Energies=        -1297.670093

                     E (Thermal)             CV                S
                      KCal/Mol        Cal/Mol-Kelvin    Cal/Mol-Kelvin
 Total                  245.687             77.476            141.354
 Electronic               0.000              0.000              0.000
 Translational            0.889              2.981             43.384
 Rotational               0.889              2.981             35.130
 Vibrational            243.910             71.515             62.839
 Vibration     1          0.594              1.982              5.520
 Vibration     2          0.596              1.977              4.751
 Vibration     3          0.597              1.972              4.374
 Vibration     4          0.599              1.966              4.017
 Vibration     5          0.602              1.956              3.657
 Vibration     6          0.611              1.925              2.969
 Vibration     7          0.617              1.906              2.712
 Vibration     8          0.631              1.861              2.282
 Vibration     9          0.633              1.854              2.233
 Vibration    10          0.643              1.823              2.026
 Vibration    11          0.655              1.786              1.835
 Vibration    12          0.666              1.754              1.694
 Vibration    13          0.677              1.720              1.565
 Vibration    14          0.686              1.692              1.473
 Vibration    15          0.693              1.672              1.411
 Vibration    16          0.699              1.655              1.364
 Vibration    17          0.707              1.633              1.304
 Vibration    18          0.713              1.614              1.257
 Vibration    19          0.726              1.578              1.172
 Vibration    20          0.731              1.564              1.142
 Vibration    21          0.755              1.499              1.013
 Vibration    22          0.773              1.451              0.930
 Vibration    23          0.775              1.446              0.922
 Vibration    24          0.791              1.407              0.861
 Vibration    25          0.799              1.385              0.829
 Vibration    26          0.838              1.292              0.707
 Vibration    27          0.851              1.259              0.669
 Vibration    28          0.864              1.231              0.637
 Vibration    29          0.893              1.166              0.569
 Vibration    30          0.933              1.081              0.491
 Vibration    31          0.938              1.071              0.483
 Vibration    32          0.959              1.030              0.448

 Normal termination of Gaussian 09 at Fri Apr  1 09:27:45 2016.
